0 	1
0.0007 	1
0.0014 	1
0.0021 	1
0.0028 	1
0.0035 	1
0.0042 	1
0.0049 	1
0.0056 	1
0.0063 	1
0.007 	1
0.0077 	1
0.0084 	1
0.0091 	1
0.0098 	1
0.0105 	1
0.0112 	1
0.0119 	1
0.0126 	1
0.0133 	1
0.014 	1
0.0147 	1
0.0154 	1
0.0161 	1
0.0168 	1
0.0175 	1
0.0182 	1
0.0189 	1
0.0196 	1
0.0203 	1
0.021 	1
0.0217 	1
0.0224 	1
0.0231 	1
0.0238 	1
0.0245 	1
0.0252 	1
0.0259 	1
0.0266 	1
0.0273 	1
0.028 	1
0.0287 	1
0.0294 	1
0.0301 	1
0.0308 	1
0.0315 	1
0.0322 	1
0.0329 	1
0.0336 	1
0.0343 	1
0.035 	1
0.0357 	1
0.0364 	1
0.0371 	1
0.0378 	1
0.0385 	1
0.0392 	1
0.0399 	1
0.0406 	1
0.0413 	1
0.042 	1
0.0427 	1
0.0434 	1
0.0441 	1
0.0448 	1
0.0455 	1
0.0462 	1
0.0469 	1
0.0476 	1
0.0483 	1
0.049 	1
0.0497 	1
0.0504 	1
0.0511 	1
0.0518 	1
0.0525 	1
0.0532 	1
0.0539 	1
0.0546 	1
0.0553 	1
0.056 	1
0.0567 	1
0.0574 	1
0.0581 	1
0.0588 	1
0.0595 	1
0.0602 	1
0.0609 	1
0.0616 	1
0.0623 	1
0.063 	1
0.0637 	1
0.0644 	1
0.0651 	1
0.0658 	1
0.0665 	1
0.0672 	1
0.0679 	1
0.0686 	1
0.0693 	1
0.07 	1
0.0707 	1
0.0714 	1
0.0721 	1
0.0728 	1
0.0735 	1
0.0742 	1
0.0749 	1
0.0756 	1
0.0763 	1
0.077 	1
0.0777 	1
0.0784 	1
0.0791 	1
0.0798 	1
0.0805 	1
0.0812 	1
0.0819 	1
0.0826 	1
0.0833 	1
0.084 	1
0.0847 	1
0.0854 	1
0.0861 	1
0.0868 	1
0.0875 	1
0.0882 	1
0.0889 	1
0.0896 	1
0.0903 	1
0.091 	1
0.0917 	1
0.0924 	1
0.0931 	1
0.0938 	1
0.0945 	1
0.0952 	1
0.0959 	1
0.0966 	1
0.0973 	1
0.098 	1
0.0987 	1
0.0994 	1
0.1001 	1
0.1008 	1
0.1015 	1
0.1022 	1
0.1029 	1
0.1036 	1
0.1043 	1
0.105 	1
0.1057 	1
0.1064 	1
0.1071 	1
0.1078 	1
0.1085 	1
0.1092 	1
0.1099 	1
0.1106 	1
0.1113 	1
0.112 	1
0.1127 	1
0.1134 	1
0.1141 	1
0.1148 	1
0.1155 	1
0.1162 	1
0.1169 	1
0.1176 	1
0.1183 	1
0.119 	1
0.1197 	1
0.1204 	1
0.1211 	1
0.1218 	1
0.1225 	1
0.1232 	1
0.1239 	1
0.1246 	1
0.1253 	1
0.126 	1
0.1267 	1
0.1274 	1
0.1281 	1
0.1288 	1
0.1295 	1
0.1302 	1
0.1309 	1
0.1316 	1
0.1323 	1
0.133 	1
0.1337 	1
0.1344 	1
0.1351 	1
0.1358 	1
0.1365 	1
0.1372 	1
0.1379 	1
0.1386 	1
0.1393 	1
0.14 	1
0.1407 	1
0.1414 	1
0.1421 	1
0.1428 	1
0.1435 	1
0.1442 	1
0.1449 	1
0.1456 	1
0.1463 	1
0.147 	1
0.1477 	1
0.1484 	1
0.1491 	1
0.1498 	1
0.1505 	1
0.1512 	1
0.1519 	1
0.1526 	1
0.1533 	1
0.154 	1
0.1547 	1
0.1554 	1
0.1561 	1
0.1568 	1
0.1575 	1
0.1582 	1
0.1589 	1
0.1596 	1
0.1603 	1
0.161 	1
0.1617 	1
0.1624 	1
0.1631 	1
0.1638 	1
0.1645 	1
0.1652 	1
0.1659 	1
0.1666 	1
0.1673 	1
0.168 	1
0.1687 	1
0.1694 	1
0.1701 	1
0.1708 	1
0.1715 	1
0.1722 	1
0.1729 	1
0.1736 	1
0.1743 	1
0.175 	1
0.1757 	1
0.1764 	1
0.1771 	1
0.1778 	1
0.1785 	1
0.1792 	1
0.1799 	1
0.1806 	1
0.1813 	1
0.182 	1
0.1827 	1
0.1834 	1
0.1841 	1
0.1848 	1
0.1855 	1
0.1862 	1
0.1869 	1
0.1876 	1
0.1883 	1
0.189 	1
0.1897 	1
0.1904 	0.999999
0.1911 	1
0.1918 	1
0.1925 	1
0.1932 	0.99998
0.1939 	0.99996
0.1946 	0.999938
0.1953 	0.999832
0.196 	0.999511
0.1967 	0.999222
0.1974 	0.998862
0.1981 	0.998388
0.1988 	0.996873
0.1995 	0.993087
0.2002 	0.991686
0.2009 	0.991403
0.2016 	0.993123
0.203 	0.998696
0.2037 	0.999269
0.2051 	0.999086
0.2065 	0.997496
0.2072 	0.996391
0.2086 	0.996908
0.21 	0.999387
0.2107 	0.999688
0.2114 	0.999932
0.2128 	0.999985
0.2142 	0.999986
0.2149 	0.999986
0.2163 	0.999986
0.2177 	0.999985
0.2191 	0.999981
0.2198 	0.99998
0.2212 	0.999981
0.2226 	0.99998
0.224 	0.999965
0.2247 	0.999954
0.2254 	0.99994
0.2268 	0.999856
0.2275 	0.999773
0.2289 	0.999439
0.2296 	0.999344
0.231 	0.999464
0.2324 	0.999287
0.2338 	0.997643
0.2352 	0.996323
0.2366 	0.995559
0.238 	0.994065
0.2387 	0.993359
0.2401 	0.994618
0.2415 	0.996184
0.2429 	0.997317
0.2443 	0.999035
0.2457 	0.999797
0.2471 	0.999883
0.2485 	0.999956
0.2499 	0.99999
0.2506 	0.999993
0.2513 	0.999994
0.2527 	0.999993
0.2534 	0.999992
0.2541 	0.999984
0.2548 	0.999972
0.2562 	0.999929
0.2576 	0.999899
0.259 	0.999894
0.2597 	0.999894
0.2604 	0.999893
0.2618 	0.999902
0.2632 	0.999935
0.2646 	0.999964
0.266 	0.999965
0.2674 	0.99997
0.2688 	0.999989
0.2702 	0.999996
0.2709 	0.999996
0.2723 	0.999997
0.273 	0.999997
0.2744 	0.999997
0.2758 	0.999997
0.2765 	0.999997
0.2779 	0.999998
0.2793 	0.999998
0.28 	0.999999
0.2814 	0.999998
0.2828 	0.999989
0.2842 	0.999926
0.2849 	0.999853
0.2863 	0.999346
0.2877 	0.998575
0.2884 	0.998334
0.2898 	0.998262
0.2912 	0.998799
0.2926 	0.999572
0.294 	0.99992
0.2954 	0.999983
0.2968 	0.999987
0.2975 	0.999987
0.2989 	0.999992
0.3003 	0.999997
0.301 	0.999998
0.3024 	0.999995
0.3038 	0.999947
0.3045 	0.999889
0.3059 	0.9998
0.3073 	0.999783
0.3087 	0.999838
0.3101 	0.999941
0.3108 	0.99997
0.3115 	0.999987
0.3129 	0.999977
0.3143 	0.999947
0.3157 	0.999944
0.3171 	0.999969
0.3178 	0.999979
0.3185 	0.999984
0.3199 	0.999985
0.3213 	0.999985
0.3227 	0.999985
0.3234 	0.999985
0.3248 	0.999985
0.3262 	0.999953
0.3276 	0.997895
0.329 	0.928428
0.3304 	0.573991
0.3311 	0.318969
0.3325 	0.0262774
0.3339 	0.00044756
0.3353 	9.5363e-07
0.336 	2.72816e-07
0.3374 	3.03268e-08
0.3388 	3.0577e-08
0.3395 	3.02065e-08
0.3402 	3.02791e-08
0.3416 	1.57085e-07
0.3423 	4.07086e-07
0.3437 	2.13255e-06
0.3451 	2.37371e-06
0.3465 	8.35107e-07
0.3479 	2.29207e-06
0.3486 	5.31247e-06
0.35 	1.52134e-05
0.3514 	1.78261e-05
0.3528 	9.96964e-06
0.3542 	2.25907e-06
0.3549 	5.16857e-07
0.3556 	1.43153e-07
0.357 	6.41613e-09
0.3577 	8.49219e-09
0.3591 	1.40055e-07
0.3605 	9.82782e-07
0.3619 	2.47158e-06
0.3633 	4.07359e-06
0.3647 	5.06288e-06
0.3654 	4.89617e-06
0.3668 	4.09835e-06
0.3682 	3.22887e-06
0.3696 	1.44846e-06
0.371 	2.4975e-07
0.3724 	1.11492e-08
0.3738 	1.33763e-09
0.3752 	1.1481e-09
0.3766 	5.67886e-10
0.378 	1.29487e-10
0.3794 	1.65599e-11
0.3801 	9.12011e-12
0.3808 	1.35859e-11
0.3822 	2.59573e-11
0.3829 	3.12002e-11
0.3836 	3.51225e-11
0.3843 	3.43772e-11
0.3857 	2.6414e-11
0.3871 	1.34134e-11
0.3885 	3.55847e-12
0.3899 	2.55989e-13
0.3913 	1.58308e-15
0.3927 	3.9545e-16
0.3934 	2.93166e-16
0.3948 	3.87094e-17
0.3962 	-3.33445e-33
0.3976 	-3.05678e-34
0.3983 	-1.42134e-34
0.399 	-3.02013e-35
0.3997 	-1.12951e-35
0.4004 	-5.30077e-37
0.4011 	4.12905e-36
0.4025 	6.64842e-36
0.4039 	1.56785e-23
0.4053 	1.43105e-22
0.4067 	1.83639e-22
0.4081 	1.97372e-22
0.4088 	2.0706e-22
0.4095 	1.65573e-22
0.4102 	1.26148e-22
0.4109 	9.18764e-23
0.4123 	2.79745e-23
0.4137 	4.73124e-24
0.4151 	-6.93586e-40
0.4165 	-1.93226e-42
0.4179 	-2.25128e-44
0.4193 	-4.97179e-46
0.4207 	-2.81274e-47
0.4221 	-9.31645e-48
0.4235 	-2.93664e-48
0.4249 	1.60019e-28
0.4263 	1.67473e-28
0.4277 	4.35433e-31
0.4291 	-5.47768e-50
0.4298 	-7.61644e-50
0.4312 	-4.27768e-50
0.4326 	-1.93456e-50
0.4333 	-1.34586e-50
0.4347 	-5.74832e-51
0.4361 	-2.33782e-51
0.4375 	-8.96354e-52
0.4389 	-3.54592e-52
0.4403 	-1.348e-52
0.4417 	-4.911e-53
0.4424 	-2.75265e-53
0.4431 	-1.71262e-53
0.4438 	-8.96146e-54
0.4445 	-5.69272e-54
0.4452 	-3.01104e-54
0.4466 	-9.70917e-55
0.448 	-3.00212e-55
0.4494 	-8.86408e-56
0.4501 	-4.19133e-56
0.4515 	-1.20353e-56
0.4522 	-6.6085e-57
0.4529 	-3.3206e-57
0.4543 	-8.76748e-58
0.4557 	-2.20954e-58
0.4571 	-5.27444e-59
0.4585 	-1.18197e-59
0.4599 	-2.43629e-60
0.4613 	-4.88058e-61
0.4627 	-1.09435e-61
0.4641 	-2.36478e-62
0.4655 	-4.92401e-63
0.4669 	-9.83739e-64
0.4683 	-1.88051e-64
0.4697 	-3.40669e-65
0.4704 	-1.38371e-65
0.4711 	-5.76793e-66
0.4718 	-2.64637e-66
0.4732 	-4.93881e-67
0.4739 	-1.73219e-67
0.4753 	-3.39598e-68
0.4767 	-6.58295e-69
0.4774 	-2.45317e-69
0.4788 	8.9676e-56
0.4802 	2.36747e-54
0.4816 	2.39808e-54
0.483 	6.20639e-55
0.4844 	8.92332e-56
0.4858 	-7.82531e-71
0.4872 	3.19197e-72
0.4879 	2.64083e-71
0.4893 	2.16706e-71
0.4907 	4.5823e-72
0.4914 	3.15704e-72
0.4921 	1.04696e-72
0.4928 	-1.84096e-73
0.4935 	-2.43126e-73
0.4949 	-1.8235e-74
0.4963 	6.47581e-75
0.4977 	9.86826e-77
0.4984 	3.41724e-77
0.4998 	3.05492e-79
0.5005 	-2.25156e-82
0.5019 	6.29551e-83
0.5033 	3.39733e-84
0.5047 	-1.15326e-72
0.5061 	-2.51413e-72
0.5075 	-1.97318e-72
0.5089 	-1.4154e-72
0.5096 	-1.20027e-72
0.5103 	-1.00851e-72
0.5117 	-7.13924e-73
0.5131 	-5.02216e-73
0.5138 	-4.15826e-73
0.5152 	-2.91304e-73
0.5159 	-2.43961e-73
0.5173 	-1.68463e-73
0.518 	-1.41078e-73
0.5194 	-9.7972e-74
0.5208 	-7.02553e-74
0.5222 	-6.13468e-74
0.5236 	-8.23596e-74
0.525 	-1.36102e-73
0.5264 	-1.99552e-73
0.5278 	-2.83113e-73
0.5285 	-3.11152e-73
0.5292 	-3.33318e-73
0.5306 	-3.60199e-73
0.5313 	-3.6592e-73
0.5327 	-3.65206e-73
0.5341 	-3.55746e-73
0.5355 	-3.33948e-73
0.5362 	-3.22128e-73
0.5376 	-2.94527e-73
0.539 	-2.70543e-73
0.5404 	-2.41891e-73
0.5411 	-2.28673e-73
0.5425 	-2.01451e-73
0.5439 	-1.80321e-73
0.5446 	-1.68334e-73
0.5453 	-1.57201e-73
0.546 	-1.47208e-73
0.5474 	-1.27402e-73
0.5481 	-1.19565e-73
0.5488 	-1.12025e-73
0.5502 	-9.62507e-74
0.5516 	-8.32284e-74
0.553 	-7.15422e-74
0.5537 	-6.67381e-74
0.5551 	-5.67669e-74
0.5565 	-4.85985e-74
0.5572 	-4.46033e-74
0.5586 	-3.82653e-74
0.56 	-3.21504e-74
0.5614 	-2.73405e-74
0.5628 	-2.29363e-74
0.5642 	-1.94815e-74
0.5649 	-1.77187e-74
0.5663 	-1.49512e-74
0.567 	-1.36317e-74
0.5677 	-1.24168e-74
0.5691 	-1.04985e-74
0.5698 	-9.52177e-75
0.5705 	-8.71154e-75
0.5712 	-7.9679e-75
0.5726 	-6.54749e-75
0.574 	-5.50381e-75
0.5754 	-4.52829e-75
0.5768 	-3.74234e-75
0.5782 	-3.07972e-75
0.5796 	-2.52883e-75
0.581 	-2.07815e-75
0.5824 	-1.67705e-75
0.5838 	-1.3848e-75
0.5852 	-1.11852e-75
0.5866 	-9.14243e-76
0.588 	-7.3602e-76
0.5894 	-5.97533e-76
0.5901 	-5.325e-76
0.5915 	-4.33415e-76
0.5922 	-3.85431e-76
0.5929 	-3.45432e-76
0.5936 	-3.11422e-76
0.595 	-2.47052e-76
0.5964 	-2.00334e-76
0.5978 	-1.58103e-76
0.5992 	-1.27029e-76
0.5999 	-1.12278e-76
0.6006 	-1.00964e-76
0.602 	-7.99316e-77
0.6034 	-6.32426e-77
0.6048 	-4.9685e-77
0.6055 	-4.43772e-77
0.6069 	-3.49945e-77
0.6083 	-2.74074e-77
0.6097 	-2.14381e-77
0.6111 	-1.69593e-77
0.6125 	-1.29705e-77
0.6139 	-1.02584e-77
0.6153 	-7.96112e-78
0.6167 	-6.24291e-78
0.6181 	-4.79183e-78
0.6195 	-3.71515e-78
0.6202 	-3.25097e-78
0.6216 	-2.54405e-78
0.6223 	-2.19872e-78
0.623 	-1.93296e-78
0.6237 	-1.69903e-78
0.6244 	-1.49229e-78
0.6258 	-1.15426e-78
0.6265 	-1.01331e-78
0.6272 	-8.7478e-79
0.6286 	-6.69402e-79
0.63 	-5.05682e-79
0.6307 	-4.50213e-79
0.6321 	-3.40725e-79
0.6328 	-2.94265e-79
0.6342 	-2.25445e-79
0.6356 	-1.71941e-79
0.6363 	-1.5083e-79
0.6377 	-1.11274e-79
0.6391 	-8.49457e-80
0.6398 	-7.32982e-80
0.6412 	-5.64653e-80
0.6426 	-4.12467e-80
0.644 	-3.13779e-80
0.6447 	-2.70885e-80
0.6461 	-2.07329e-80
0.6475 	-1.49992e-80
0.6489 	-1.13744e-80
0.6496 	-9.82743e-81
0.651 	-7.47575e-81
0.6524 	-5.41307e-81
0.6538 	-4.05304e-81
0.6545 	-3.50578e-81
0.6559 	-2.65178e-81
0.6573 	-1.92386e-81
0.6587 	-1.42507e-81
0.6601 	-1.05054e-81
0.6615 	-8.00627e-82
0.6622 	-6.73258e-82
0.6629 	-5.73287e-82
0.6636 	-4.93864e-82
0.665 	-3.60107e-82
0.6664 	-2.75249e-82
0.6678 	-1.95144e-82
0.6692 	-1.44453e-82
0.6699 	-1.22426e-82
0.6706 	-1.07191e-82
0.6713 	-9.30462e-83
0.6727 	-6.53333e-83
0.6741 	-4.82575e-83
0.6755 	-3.55896e-83
0.6762 	-3.09687e-83
0.6776 	-2.15695e-83
0.679 	-1.59148e-83
0.6804 	-1.16859e-83
0.6818 	-8.64544e-84
0.6832 	-6.13196e-84
0.6846 	-4.47509e-84
0.686 	-3.37053e-84
0.6874 	-2.37364e-84
0.6888 	-1.7492e-84
0.6902 	-1.30101e-84
0.6916 	-1.00361e-84
0.693 	-7.34546e-85
0.6944 	-5.85943e-85
0.6958 	-5.08245e-85
0.6972 	-4.39381e-85
0.6986 	-3.63742e-85
0.6993 	-2.79065e-85
0.7 	-1.86829e-85
