0 	1
0.0007 	1
0.0014 	1
0.0021 	1
0.0028 	1
0.0035 	1
0.0042 	1
0.0049 	1
0.0056 	1
0.0063 	1
0.007 	1
0.0077 	1
0.0084 	1
0.0091 	1
0.0098 	1
0.0105 	1
0.0112 	1
0.0119 	1
0.0126 	1
0.0133 	1
0.014 	1
0.0147 	1
0.0154 	1
0.0161 	1
0.0168 	1
0.0175 	1
0.0182 	1
0.0189 	1
0.0196 	1
0.0203 	1
0.021 	1
0.0217 	1
0.0224 	1
0.0231 	1
0.0238 	1
0.0245 	1
0.0252 	1
0.0259 	1
0.0266 	1
0.0273 	1
0.028 	1
0.0287 	1
0.0294 	1
0.0301 	1
0.0308 	1
0.0315 	1
0.0322 	1
0.0329 	1
0.0336 	1
0.0343 	1
0.035 	1
0.0357 	1
0.0364 	1
0.0371 	1
0.0378 	1
0.0385 	1
0.0392 	1
0.0399 	1
0.0406 	1
0.0413 	1
0.042 	1
0.0427 	1
0.0434 	1
0.0441 	1
0.0448 	1
0.0455 	1
0.0462 	1
0.0469 	1
0.0476 	1
0.0483 	1
0.049 	1
0.0497 	1
0.0504 	1
0.0511 	1
0.0518 	1
0.0525 	1
0.0532 	1
0.0539 	1
0.0546 	1
0.0553 	1
0.056 	1
0.0567 	1
0.0574 	1
0.0581 	1
0.0588 	1
0.0595 	1
0.0602 	1
0.0609 	1
0.0616 	1
0.0623 	1
0.063 	1
0.0637 	1
0.0644 	1
0.0651 	1
0.0658 	1
0.0665 	1
0.0672 	1
0.0679 	1
0.0686 	1
0.0693 	1
0.07 	1
0.0707 	1
0.0714 	1
0.0721 	1
0.0728 	1
0.0735 	1
0.0742 	1
0.0749 	1
0.0756 	1
0.0763 	1
0.077 	1
0.0777 	1
0.0784 	1
0.0791 	1
0.0798 	1
0.0805 	1
0.0812 	1
0.0819 	1
0.0826 	1
0.0833 	1
0.084 	1
0.0847 	1
0.0854 	1
0.0861 	1
0.0868 	1
0.0875 	1
0.0882 	1
0.0889 	1
0.0896 	1
0.0903 	1
0.091 	1
0.0917 	1
0.0924 	1
0.0931 	1
0.0938 	1
0.0945 	1
0.0952 	1
0.0959 	1
0.0966 	1
0.0973 	1
0.098 	1
0.0987 	1
0.0994 	1
0.1001 	1
0.1008 	1
0.1015 	1
0.1022 	1
0.1029 	1
0.1036 	1
0.1043 	1
0.105 	1
0.1057 	1
0.1064 	1
0.1071 	1
0.1078 	1
0.1085 	1
0.1092 	1
0.1099 	1
0.1106 	1
0.1113 	1
0.112 	1
0.1127 	1
0.1134 	1
0.1141 	1
0.1148 	1
0.1155 	1
0.1162 	1
0.1169 	1
0.1176 	1
0.1183 	1
0.119 	1
0.1197 	1
0.1204 	1
0.1211 	1
0.1218 	1
0.1225 	1
0.1232 	1
0.1239 	1
0.1246 	1
0.1253 	1
0.126 	1
0.1267 	1
0.1274 	1
0.1281 	1
0.1288 	1
0.1295 	1
0.1302 	1
0.1309 	1
0.1316 	1
0.1323 	1
0.133 	1
0.1337 	1
0.1344 	1
0.1351 	1
0.1358 	1
0.1365 	1
0.1372 	1
0.1379 	1
0.1386 	1
0.1393 	1
0.14 	1
0.1407 	1
0.1414 	1
0.1421 	1
0.1428 	1
0.1435 	1
0.1442 	1
0.1449 	1
0.1456 	1
0.1463 	1
0.147 	1
0.1477 	1
0.1484 	1
0.1491 	1
0.1498 	1
0.1505 	1
0.1512 	1
0.1519 	1
0.1526 	1
0.1533 	1
0.154 	1
0.1547 	1
0.1554 	1
0.1561 	1
0.1568 	1
0.1575 	1
0.1582 	1
0.1589 	1
0.1596 	1
0.1603 	1
0.161 	1
0.1617 	1
0.1624 	1
0.1631 	1
0.1638 	1
0.1645 	1
0.1652 	1
0.1659 	1
0.1666 	1
0.1673 	1
0.168 	1
0.1687 	1
0.1694 	1
0.1701 	1
0.1708 	1
0.1715 	1
0.1722 	1
0.1729 	1
0.1736 	1
0.1743 	1
0.175 	1
0.1757 	1
0.1764 	1
0.1771 	1
0.1778 	1
0.1785 	1
0.1792 	1
0.1799 	1
0.1806 	1
0.1813 	1
0.182 	1
0.1827 	1
0.1834 	1
0.1841 	1
0.1848 	1
0.1855 	1
0.1862 	1
0.1869 	1
0.1876 	1
0.1883 	1
0.189 	1
0.1897 	1
0.1904 	1
0.1911 	1
0.1918 	1
0.1925 	1
0.1932 	1
0.1939 	1
0.1946 	1
0.1953 	1
0.196 	1
0.1967 	1
0.1974 	1
0.1981 	1
0.1988 	1
0.1995 	1
0.2002 	1
0.2009 	1
0.2016 	1
0.2023 	1
0.203 	1
0.2037 	1
0.2044 	1
0.2051 	1
0.2058 	1
0.2065 	1
0.2072 	1
0.2079 	1
0.2086 	1
0.2093 	1
0.21 	1
0.2107 	0.999997
0.2114 	0.999995
0.2121 	0.999992
0.2128 	0.99999
0.2135 	0.999987
0.2142 	0.999985
0.2149 	0.999982
0.2156 	0.999796
0.2163 	0.999579
0.217 	0.999362
0.2177 	0.999145
0.2184 	0.998929
0.2191 	0.998712
0.2198 	0.998495
0.2205 	0.995498
0.2212 	0.991386
0.2219 	0.987275
0.2226 	0.983163
0.2233 	0.979052
0.224 	0.97494
0.2247 	0.970829
0.2254 	0.946141
0.2261 	0.905995
0.2268 	0.86585
0.2275 	0.825704
0.2282 	0.785559
0.2289 	0.745414
0.2296 	0.705269
0.2303 	0.655339
0.231 	0.592403
0.2317 	0.529467
0.2324 	0.466532
0.2331 	0.403596
0.2338 	0.34066
0.2345 	0.277725
0.2352 	0.224311
0.2359 	0.194742
0.2366 	0.165171
0.2373 	0.135601
0.238 	0.10603
0.2387 	0.0764593
0.2394 	0.0468887
0.2401 	0.0211307
0.2408 	0.0181819
0.2415 	0.015233
0.2422 	0.012284
0.2429 	0.00933503
0.2436 	0.00638602
0.2443 	0.00343702
0.245 	0.000489437
0.2457 	0.000422182
0.2464 	0.000354977
0.2471 	0.000287768
0.2478 	0.000220559
0.2485 	0.000153349
0.2492 	8.61402e-05
0.2499 	1.8931e-05
0.2506 	8.29014e-06
0.2513 	7.03965e-06
0.252 	5.78913e-06
0.2527 	4.53862e-06
0.2534 	3.28811e-06
0.2541 	2.0376e-06
0.2548 	7.87085e-07
0.2555 	3.89494e-07
0.2562 	3.3229e-07
0.2569 	2.75096e-07
0.2576 	2.17903e-07
0.2583 	1.60709e-07
0.259 	1.03516e-07
0.2597 	4.63222e-08
0.2604 	2.01624e-08
0.2611 	1.7234e-08
0.2618 	1.43071e-08
0.2625 	1.13806e-08
0.2632 	8.4541e-09
0.2639 	5.52761e-09
0.2646 	2.60112e-09
0.2653 	8.76573e-10
0.266 	7.51537e-10
0.2667 	6.26622e-10
0.2674 	5.01774e-10
0.2681 	3.76925e-10
0.2688 	2.52077e-10
0.2695 	1.27228e-10
0.2702 	3.66491e-11
0.2709 	3.15441e-11
0.2716 	2.64454e-11
0.2723 	2.13528e-11
0.273 	1.62603e-11
0.2737 	1.11678e-11
0.2744 	6.07528e-12
0.2751 	1.67901e-12
0.2758 	1.44426e-12
0.2765 	1.20979e-12
0.2772 	9.75808e-13
0.2779 	7.41823e-13
0.2786 	5.07838e-13
0.2793 	2.73853e-13
0.28 	3.99849e-14
0.2807 	3.44019e-14
0.2814 	2.88275e-14
0.2821 	2.32703e-14
0.2828 	1.77131e-14
0.2835 	1.2156e-14
0.2842 	6.59878e-15
0.2849 	1.04161e-15
0.2856 	2.20446e-16
0.2863 	1.85286e-16
0.287 	1.50276e-16
0.2877 	1.15266e-16
0.2884 	8.02568e-17
0.2891 	4.52471e-17
0.2898 	1.02375e-17
0.2905 	2.2786e-19
0.2912 	1.92259e-19
0.2919 	1.56835e-19
0.2926 	1.21424e-19
0.2933 	8.60124e-20
0.294 	5.06013e-20
0.2947 	1.51902e-20
0.2954 	3.01796e-23
0.2961 	2.55654e-23
0.2968 	2.09722e-23
0.2975 	1.63846e-23
0.2982 	1.17971e-23
0.2989 	7.20955e-24
0.2996 	2.62201e-24
0.3003 	2.82888e-27
0.301 	2.40581e-27
0.3017 	1.98416e-27
0.3024 	1.5633e-27
0.3031 	1.14245e-27
0.3038 	7.21588e-28
0.3045 	3.0073e-28
0.3052 	3.28679e-31
0.3059 	2.80564e-31
0.3066 	2.32567e-31
0.3073 	1.84688e-31
0.308 	1.36809e-31
0.3087 	8.89294e-32
0.3094 	4.10503e-32
0.3101 	3.60049e-35
0.3108 	3.08426e-35
0.3115 	2.56891e-35
0.3122 	2.05515e-35
0.3129 	1.54138e-35
0.3136 	1.02761e-35
0.3143 	5.13839e-36
0.315 	3.46533e-39
0.3157 	2.97805e-39
0.3164 	2.49177e-39
0.3171 	2.00726e-39
0.3178 	1.52276e-39
0.3185 	1.03825e-39
0.3192 	5.5375e-40
0.3199 	6.92463e-41
0.3206 	2.56828e-43
0.3213 	2.15826e-43
0.322 	1.74994e-43
0.3227 	1.34162e-43
0.3234 	9.33304e-44
0.3241 	5.24987e-44
0.3248 	1.16669e-44
0.3255 	2.04041e-47
0.3262 	1.72189e-47
0.3269 	1.40462e-47
0.3276 	1.08745e-47
0.3283 	7.70274e-48
0.329 	4.53101e-48
0.3297 	1.35927e-48
0.3304 	1.53218e-51
0.3311 	1.29828e-51
0.3318 	1.06509e-51
0.3325 	8.32102e-52
0.3332 	5.99111e-52
0.3339 	3.6612e-52
0.3346 	1.3313e-52
0.3353 	1.10559e-55
0.336 	9.40472e-56
0.3367 	7.75719e-56
0.3374 	6.11171e-56
0.3381 	4.46623e-56
0.3388 	2.82075e-56
0.3395 	1.17526e-56
0.3402 	7.72955e-60
0.3409 	6.59964e-60
0.3416 	5.47144e-60
0.3423 	4.34496e-60
0.343 	3.21847e-60
0.3437 	2.09198e-60
0.3444 	9.6549e-61
0.3451 	5.24882e-64
0.3458 	4.49751e-64
0.3465 	3.74689e-64
0.3472 	2.9975e-64
0.3479 	2.24811e-64
0.3486 	1.49872e-64
0.3493 	7.49331e-65
0.35 	3.46051e-68
0.3507 	2.97469e-68
0.3514 	2.48976e-68
0.3521 	2.00563e-68
0.3528 	1.5215e-68
0.3535 	1.03737e-68
0.3542 	5.53246e-69
0.3549 	6.91171e-70
0.3556 	1.90621e-72
0.3563 	1.60255e-72
0.357 	1.29936e-72
0.3577 	9.9617e-73
0.3584 	6.92978e-73
0.3591 	3.89785e-73
0.3598 	8.65931e-74
0.3605 	1.16233e-76
0.3612 	9.7022e-77
0.3619 	7.85884e-77
0.3626 	6.02145e-77
0.3633 	4.18407e-77
0.364 	2.34669e-77
0.3647 	5.09309e-78
0.3654 	-3.70593e-78
0.3661 	-5.34268e-78
0.3668 	-5.69426e-78
0.3675 	-5.69534e-78
0.3682 	-5.69643e-78
0.3689 	-5.69752e-78
0.3696 	-5.6986e-78
0.3703 	-5.46873e-78
0.371 	-4.93023e-78
0.3717 	-4.73794e-78
0.3724 	-4.73798e-78
0.3731 	-4.73802e-78
0.3738 	-4.73806e-78
0.3745 	-4.7381e-78
0.3752 	-4.4017e-78
0.3759 	-3.22199e-78
0.3766 	-2.63213e-78
0.3773 	-2.63211e-78
0.378 	-2.6321e-78
0.3787 	-2.63208e-78
0.3794 	-2.63206e-78
0.3801 	-2.51017e-78
0.3808 	-1.65383e-78
0.3815 	-1.10332e-78
0.3822 	-1.10329e-78
0.3829 	-1.10326e-78
0.3836 	-1.10323e-78
0.3843 	-1.1032e-78
0.385 	-1.1035e-78
0.3857 	-6.94189e-79
0.3864 	-3.72668e-79
0.3871 	-3.72648e-79
0.3878 	-3.72628e-79
0.3885 	-3.72608e-79
0.3892 	-3.72589e-79
0.3899 	-3.72569e-79
0.3906 	-2.44552e-79
0.3913 	-1.05784e-79
0.392 	-1.05775e-79
0.3927 	-1.05766e-79
0.3934 	-1.05757e-79
0.3941 	-1.05748e-79
0.3948 	-1.05738e-79
0.3955 	-7.38453e-80
0.3962 	-2.91652e-80
0.3969 	-2.59707e-80
0.3976 	-2.59675e-80
0.3983 	-2.59642e-80
0.399 	-2.59609e-80
0.3997 	-2.59576e-80
0.4004 	-1.94567e-80
0.4011 	-8.07194e-81
0.4018 	-5.63159e-81
0.4025 	-5.63061e-81
0.4032 	-5.62964e-81
0.4039 	-5.62867e-81
0.4046 	-5.62769e-81
0.4053 	-4.54057e-81
0.406 	-2.00211e-81
0.4067 	-1.09536e-81
0.4074 	-1.09511e-81
0.4081 	-1.09486e-81
0.4088 	-1.09462e-81
0.4095 	-1.09437e-81
0.4102 	-9.50292e-82
0.4109 	-4.45705e-82
0.4116 	-1.93385e-82
0.4123 	-1.9333e-82
0.413 	-1.93275e-82
0.4137 	-1.9322e-82
0.4144 	-1.93165e-82
0.4151 	-1.80215e-82
0.4158 	-8.95622e-83
0.4165 	-3.12813e-83
0.4172 	-3.12704e-83
0.4179 	-3.12595e-83
0.4186 	-3.12485e-83
0.4193 	-3.12376e-83
0.42 	-3.12359e-83
0.4207 	-1.63591e-83
0.4214 	-4.67079e-84
0.4221 	-4.66882e-84
0.4228 	-4.66685e-84
0.4235 	-4.66488e-84
0.4242 	-4.66291e-84
0.4249 	-4.66095e-84
0.4256 	-2.73507e-84
0.4263 	-6.47714e-85
0.427 	-6.47389e-85
0.4277 	-6.47065e-85
0.4284 	-6.46741e-85
0.4291 	-6.46417e-85
0.4298 	-6.46093e-85
0.4305 	-4.21234e-85
0.4312 	-1.0633e-85
0.4319 	-8.37914e-86
0.4326 	-8.37422e-86
0.4333 	-8.3693e-86
0.434 	-8.36438e-86
0.4347 	-8.35945e-86
0.4354 	-6.00994e-86
0.4361 	-1.89823e-86
0.4368 	-1.0166e-86
0.4375 	-1.01591e-86
0.4382 	-1.01521e-86
0.4389 	-1.01452e-86
0.4396 	-1.01383e-86
0.4403 	-7.98267e-87
0.441 	-2.95612e-87
0.4417 	-1.16034e-87
0.4424 	-1.15943e-87
0.4431 	-1.15852e-87
0.4438 	-1.1576e-87
0.4445 	-1.15669e-87
0.4452 	-9.91332e-88
0.4459 	-4.13805e-88
0.4466 	-1.24986e-88
0.4473 	-1.24873e-88
0.448 	-1.24761e-88
0.4487 	-1.24648e-88
0.4494 	-1.24536e-88
0.4501 	-1.15533e-88
0.4508 	-5.29662e-89
0.4515 	-1.27396e-89
0.4522 	-1.27266e-89
0.4529 	-1.27135e-89
0.4536 	-1.27005e-89
0.4543 	-1.26874e-89
0.455 	-1.26781e-89
0.4557 	-6.26813e-90
0.4564 	-1.23175e-90
0.4571 	-1.23032e-90
0.4578 	-1.22889e-90
0.4585 	-1.22746e-90
0.4592 	-1.22603e-90
0.4599 	-1.2246e-90
0.4606 	-6.91201e-91
0.4613 	-1.13214e-91
0.462 	-1.13065e-91
0.4627 	-1.12917e-91
0.4634 	-1.12768e-91
0.4641 	-1.1262e-91
0.4648 	-1.12471e-91
0.4655 	-7.14392e-92
0.4662 	-1.40122e-92
0.4669 	-9.8967e-93
0.4676 	-9.88207e-93
0.4683 	-9.86743e-93
0.469 	-9.8528e-93
0.4697 	-9.83816e-93
0.4704 	-6.95228e-93
0.4711 	-1.90847e-93
0.4718 	-8.26573e-94
0.4725 	-8.252e-94
0.4732 	-8.23827e-94
0.4739 	-8.22453e-94
0.4746 	-8.2108e-94
0.4753 	-6.39442e-94
0.476 	-2.1695e-94
0.4767 	-6.59815e-95
0.4774 	-6.58586e-95
0.4781 	-6.57356e-95
0.4788 	-6.56127e-95
0.4795 	-6.54898e-95
0.4802 	-5.57596e-95
0.4809 	-2.19513e-95
0.4816 	-5.04182e-96
0.4823 	-5.03131e-96
0.483 	-5.02079e-96
0.4837 	-5.01028e-96
0.4844 	-4.99977e-96
0.4851 	-4.62227e-96
0.4858 	-2.03371e-96
0.4865 	-3.6933e-97
0.4872 	-3.68469e-97
0.4879 	-3.67609e-97
0.4886 	-3.66748e-97
0.4893 	-3.65887e-97
0.49 	-3.65132e-97
0.4907 	-1.75206e-97
0.4914 	-2.59724e-98
0.4921 	-2.59048e-98
0.4928 	-2.58373e-98
0.4935 	-2.57697e-98
0.4942 	-2.57022e-98
0.4949 	-2.56346e-98
0.4956 	-1.41714e-98
0.4963 	-1.75576e-99
0.497 	-1.75067e-99
0.4977 	-1.74558e-99
0.4984 	-1.74048e-99
0.4991 	-1.73539e-99
0.4998 	-1.7303e-99
0.5005 	-1.08327e-99
0.5012 	-1.78822e-100
0.5019 	-1.13876e-100
0.5026 	-1.13507e-100
0.5033 	-1.13139e-100
0.504 	-1.1277e-100
0.5047 	-1.12401e-100
0.5054 	-7.86359e-101
0.5061 	-1.97725e-101
0.5068 	-7.13871e-102
0.5075 	-7.11299e-102
0.5082 	-7.08726e-102
0.5089 	-7.06154e-102
0.5096 	-7.03582e-102
0.5103 	-5.44135e-102
0.511 	-1.75093e-102
0.5117 	-4.31814e-103
0.5124 	-4.30086e-103
0.5131 	-4.28357e-103
0.5138 	-4.26629e-103
0.5145 	-4.249e-103
0.5152 	-3.60019e-103
0.5159 	-1.36866e-103
0.5166 	-2.52339e-104
0.5173 	-2.51219e-104
0.518 	-2.50098e-104
0.5187 	-2.48978e-104
0.5194 	-2.47858e-104
0.5201 	-2.28348e-104
0.5208 	-9.80502e-105
0.5215 	-1.42622e-105
0.5222 	-1.41921e-105
0.5229 	-1.4122e-105
0.5236 	-1.40519e-105
0.5243 	-1.39818e-105
0.525 	-1.39157e-105
0.5257 	-6.56035e-106
0.5264 	-7.80534e-107
0.5271 	-7.76293e-107
0.5278 	-7.72053e-107
0.5285 	-7.67813e-107
0.5292 	-7.63573e-107
0.5299 	-7.59333e-107
0.5306 	-4.14524e-107
0.5313 	-4.14058e-108
0.532 	-4.11577e-108
0.5327 	-4.09096e-108
0.5334 	-4.06615e-108
0.5341 	-4.04134e-108
0.5348 	-4.01653e-108
0.5355 	-2.4915e-108
0.5362 	-3.64923e-109
0.5369 	-2.11719e-109
0.5376 	-2.10313e-109
0.5383 	-2.08907e-109
0.539 	-2.07502e-109
0.5397 	-2.06096e-109
0.5404 	-1.43176e-109
0.5411 	-3.40266e-110
0.5418 	-1.05769e-110
0.5425 	-1.04996e-110
0.5432 	-1.04224e-110
0.5439 	-1.03452e-110
0.5446 	-1.02679e-110
0.5453 	-7.89601e-111
0.546 	-2.45828e-111
0.5467 	-5.13584e-112
0.5474 	-5.09466e-112
0.5481 	-5.05348e-112
0.5488 	-5.0123e-112
0.5495 	-4.97112e-112
0.5502 	-4.19109e-112
0.5509 	-1.55946e-112
0.5516 	-2.42583e-113
0.5523 	-2.40448e-113
0.553 	-2.38313e-113
0.5537 	-2.36178e-113
0.5544 	-2.34043e-113
0.5551 	-2.14586e-113
0.5558 	-9.0781e-114
0.5565 	-1.11534e-114
0.5572 	-1.10455e-114
0.5579 	-1.09377e-114
0.5586 	-1.08299e-114
0.5593 	-1.0722e-114
0.56 	-1.06174e-114
0.5607 	-4.95181e-115
0.5614 	-4.99496e-116
0.5621 	-4.94176e-116
0.5628 	-4.88857e-116
0.5635 	-4.83537e-116
0.5642 	-4.78218e-116
0.5649 	-4.72898e-116
0.5656 	-2.5605e-116
0.5663 	-2.1803e-117
0.567 	-2.1546e-117
0.5677 	-2.12889e-117
0.5684 	-2.10318e-117
0.5691 	-2.07747e-117
0.5698 	-2.05176e-117
0.5705 	-1.26406e-117
0.5712 	-1.70828e-118
0.5719 	-9.16048e-119
0.5726 	-9.03827e-119
0.5733 	-8.91605e-119
0.574 	-8.79383e-119
0.5747 	-8.67162e-119
0.5754 	-5.98567e-119
0.5761 	-1.37302e-119
0.5768 	-3.80087e-120
0.5775 	-3.74345e-120
0.5782 	-3.68603e-120
0.5789 	-3.62861e-120
0.5796 	-3.57119e-120
0.5803 	-2.72725e-120
0.581 	-8.32497e-121
0.5817 	-1.54075e-121
0.5824 	-1.51395e-121
0.5831 	-1.48715e-121
0.5838 	-1.46035e-121
0.5845 	-1.43355e-121
0.5852 	-1.19829e-121
0.5859 	-4.4059e-122
0.5866 	-6.11164e-123
0.5873 	-5.98674e-123
0.588 	-5.86185e-123
0.5887 	-5.73695e-123
0.5894 	-5.61206e-123
0.5901 	-5.08511e-123
0.5908 	-2.13583e-123
0.5915 	-2.37785e-124
0.5922 	-2.31949e-124
0.5929 	-2.26113e-124
0.5936 	-2.20277e-124
0.5943 	-2.14441e-124
0.595 	-2.08678e-124
0.5957 	-9.69424e-125
0.5964 	-9.10571e-126
0.5971 	-8.83161e-126
0.5978 	-8.55751e-126
0.5985 	-8.28341e-126
0.5992 	-8.00931e-126
0.5999 	-7.73521e-126
0.6006 	-4.16897e-126
0.6013 	-3.44859e-127
0.602 	-3.31918e-127
0.6027 	-3.18976e-127
0.6034 	-3.06035e-127
0.6041 	-2.93093e-127
0.6048 	-2.80152e-127
0.6055 	-1.71099e-127
0.6062 	-2.34982e-128
0.6069 	-1.23862e-128
0.6076 	-1.17734e-128
0.6083 	-1.11605e-128
0.609 	-1.05476e-128
0.6097 	-9.93473e-129
0.6104 	-6.73401e-129
0.6111 	-1.58787e-129
0.6118 	-4.62345e-130
0.6125 	-4.33347e-130
0.6132 	-4.04348e-130
0.6139 	-3.75349e-130
0.6146 	-3.4635e-130
0.6153 	-2.55088e-130
0.616 	-8.05969e-131
0.6167 	-1.74018e-131
0.6174 	-1.60375e-131
0.6181 	-1.46732e-131
0.6188 	-1.3309e-131
0.6195 	-1.19447e-131
0.6202 	-9.32912e-132
0.6209 	-3.57429e-132
0.6216 	-6.6512e-133
0.6223 	-6.01619e-133
0.623 	-5.38117e-133
0.6237 	-4.74616e-133
0.6244 	-4.11115e-133
0.6251 	-3.30404e-133
0.6258 	-1.45701e-133
0.6265 	-2.59232e-134
0.6272 	-2.30118e-134
0.6279 	-2.01004e-134
0.6286 	-1.71891e-134
0.6293 	-1.42777e-134
0.63 	-1.13773e-134
0.6307 	-5.59526e-135
0.6314 	-1.02999e-135
0.6321 	-8.99012e-136
0.6328 	-7.68034e-136
0.6335 	-6.37056e-136
0.6342 	-5.06078e-136
0.6349 	-3.751e-136
0.6356 	-2.05514e-136
0.6363 	-4.15221e-137
0.637 	-3.57575e-137
0.6377 	-2.9993e-137
0.6384 	-2.42285e-137
0.6391 	-1.84639e-137
0.6398 	-1.26994e-137
0.6405 	-7.30099e-138
0.6412 	-2.04314e-138
0.6419 	-1.43766e-138
0.6426 	-1.19006e-138
0.6433 	-9.42462e-139
0.644 	-6.94862e-139
0.6447 	-4.47262e-139
0.6454 	-2.53217e-139
0.6461 	-9.90768e-140
0.6468 	-5.79074e-140
0.6475 	-4.7548e-140
0.6482 	-3.71887e-140
0.6489 	-2.68293e-140
0.6496 	-1.647e-140
0.6503 	-8.64325e-141
0.651 	-4.18081e-141
0.6517 	-2.31609e-141
0.6524 	-1.89454e-141
0.6531 	-1.47299e-141
0.6538 	-1.05144e-141
0.6545 	-6.2989e-142
0.6552 	-2.92281e-142
0.6559 	-1.63843e-142
0.6566 	-9.12927e-143
0.6573 	-7.46296e-143
0.658 	-5.79665e-143
0.6587 	-4.13035e-143
0.6594 	-2.46404e-143
0.6601 	-9.83595e-144
0.6608 	-6.13373e-144
0.6615 	-3.52547e-144
0.6622 	-2.88633e-144
0.6629 	-2.24718e-144
0.6636 	-1.60804e-144
0.6643 	-9.68894e-145
0.665 	-3.31804e-145
0.6657 	-2.22428e-145
0.6664 	-1.32807e-145
0.6671 	-1.09038e-145
0.6678 	-8.52697e-146
0.6685 	-6.1501e-146
0.6692 	-3.77323e-146
0.6699 	-1.39637e-146
0.6706 	-7.86521e-147
0.6713 	-4.86573e-147
0.672 	-4.0093e-147
0.6727 	-3.15287e-147
0.6734 	-2.29643e-147
0.6741 	-1.44e-147
0.6748 	-5.83574e-148
0.6755 	-2.71895e-148
0.6762 	-1.77654e-148
0.6769 	-1.43168e-148
0.6776 	-1.13278e-148
0.6783 	-8.33889e-149
0.679 	-5.34994e-149
0.6797 	-2.36099e-149
0.6804 	-9.19308e-150
0.6811 	-6.36079e-150
0.6818 	-4.95986e-150
0.6825 	-3.94931e-150
0.6832 	-2.93876e-150
0.6839 	-1.92821e-150
0.6846 	-9.17654e-151
0.6853 	-3.0397e-151
0.686 	-2.18547e-151
0.6867 	-1.6674e-151
0.6874 	-1.3361e-151
0.6881 	-1.0048e-151
0.6888 	-6.73502e-152
0.6895 	-3.42201e-152
0.6902 	-9.83366e-153
0.6909 	-7.26225e-153
0.6916 	-5.44883e-153
0.6923 	-4.39341e-153
0.693 	-3.33799e-153
0.6937 	-2.28256e-153
0.6944 	-1.22714e-153
0.6951 	-3.12217e-154
0.6958 	-2.37455e-154
0.6965 	-1.78028e-154
0.6972 	-1.46204e-154
0.6979 	-1.14379e-154
0.6986 	-8.25549e-155
0.6993 	-5.07305e-155
0.7 	-1.91422e-155
