0 	1
0.0007 	1
0.0014 	1
0.0021 	1
0.0028 	1
0.0035 	1
0.0042 	1
0.0049 	1
0.0056 	1
0.0063 	1
0.007 	1
0.0077 	1
0.0084 	1
0.0091 	1
0.0098 	1
0.0105 	1
0.0112 	1
0.0119 	1
0.0126 	1
0.0133 	1
0.014 	1
0.0147 	1
0.0154 	1
0.0161 	1
0.0168 	1
0.0175 	1
0.0182 	1
0.0189 	1
0.0196 	1
0.0203 	1
0.021 	1
0.0217 	1
0.0224 	1
0.0231 	1
0.0238 	1
0.0245 	1
0.0252 	1
0.0259 	1
0.0266 	1
0.0273 	1
0.028 	1
0.0287 	1
0.0294 	1
0.0301 	1
0.0308 	1
0.0315 	1
0.0322 	1
0.0329 	1
0.0336 	1
0.0343 	1
0.035 	1
0.0357 	1
0.0364 	1
0.0371 	1
0.0378 	1
0.0385 	1
0.0392 	1
0.0399 	1
0.0406 	1
0.0413 	1
0.042 	1
0.0427 	1
0.0434 	1
0.0441 	1
0.0448 	1
0.0455 	1
0.0462 	1
0.0469 	1
0.0476 	1
0.0483 	1
0.049 	1
0.0497 	1
0.0504 	1
0.0511 	1
0.0518 	1
0.0525 	1
0.0532 	1
0.0539 	1
0.0546 	1
0.0553 	1
0.056 	1
0.0567 	1
0.0574 	1
0.0581 	1
0.0588 	1
0.0595 	1
0.0602 	1
0.0609 	1
0.0616 	1
0.0623 	1
0.063 	1
0.0637 	1
0.0644 	1
0.0651 	1
0.0658 	1
0.0665 	1
0.0672 	1
0.0679 	1
0.0686 	1
0.0693 	1
0.07 	1
0.0707 	1
0.0714 	1
0.0721 	1
0.0728 	1
0.0735 	1
0.0742 	1
0.0749 	1
0.0756 	1
0.0763 	1
0.077 	1
0.0777 	1
0.0784 	1
0.0791 	1
0.0798 	1
0.0805 	1
0.0812 	1
0.0819 	1
0.0826 	1
0.0833 	1
0.084 	1
0.0847 	1
0.0854 	1
0.0861 	1
0.0868 	1
0.0875 	1
0.0882 	1
0.0889 	1
0.0896 	1
0.0903 	1
0.091 	1
0.0917 	1
0.0924 	1
0.0931 	1
0.0938 	1
0.0945 	1
0.0952 	1
0.0959 	1
0.0966 	1
0.0973 	1
0.098 	1
0.0987 	1
0.0994 	1
0.1001 	1
0.1008 	1
0.1015 	1
0.1022 	1
0.1029 	1
0.1036 	1
0.1043 	1
0.105 	1
0.1057 	1
0.1064 	1
0.1071 	1
0.1078 	1
0.1085 	1
0.1092 	1
0.1099 	1
0.1106 	1
0.1113 	1
0.112 	1
0.1127 	1
0.1134 	1
0.1141 	1
0.1148 	1
0.1155 	1
0.1162 	1
0.1169 	1
0.1176 	1
0.1183 	1
0.119 	1
0.1197 	1
0.1204 	1
0.1211 	1
0.1218 	1
0.1225 	1
0.1232 	1
0.1239 	1
0.1246 	1
0.1253 	1
0.126 	1
0.1267 	1
0.1274 	1
0.1281 	1
0.1288 	1
0.1295 	1
0.1302 	1
0.1309 	1
0.1316 	1
0.1323 	1
0.133 	1
0.1337 	1
0.1344 	1
0.1351 	1
0.1358 	1
0.1365 	1
0.1372 	1
0.1379 	1
0.1386 	1
0.1393 	1
0.14 	1
0.1407 	1
0.1414 	1
0.1421 	1
0.1428 	1
0.1435 	1
0.1442 	1
0.1449 	1
0.1456 	1
0.1463 	1
0.147 	1
0.1477 	1
0.1484 	1
0.1491 	1
0.1498 	1
0.1505 	1
0.1512 	1
0.1519 	1
0.1526 	1
0.1533 	1
0.154 	1
0.1547 	1
0.1554 	1
0.1561 	1
0.1568 	1
0.1575 	1
0.1582 	1
0.1589 	1
0.1596 	1
0.1603 	1
0.161 	1
0.1617 	1
0.1624 	1
0.1631 	1
0.1638 	1
0.1645 	1
0.1652 	1
0.1659 	1
0.1666 	1
0.1673 	1
0.168 	1
0.1687 	1
0.1694 	1
0.1701 	1
0.1708 	1
0.1715 	1
0.1722 	1
0.1729 	1
0.1736 	1
0.1743 	1
0.175 	1
0.1757 	1
0.1764 	1
0.1771 	1
0.1778 	1
0.1785 	1
0.1792 	1
0.1799 	1
0.1806 	1
0.1813 	1
0.182 	1
0.1827 	1
0.1834 	1
0.1841 	1
0.1848 	1
0.1855 	1
0.1862 	1
0.1869 	1
0.1876 	1
0.1883 	1
0.189 	1
0.1897 	1
0.1904 	1
0.1911 	1
0.1918 	1
0.1925 	1
0.1932 	1
0.1939 	1
0.1946 	1
0.1953 	1
0.196 	1
0.1967 	1
0.1974 	1
0.1981 	1
0.1988 	1
0.1995 	1
0.2002 	1
0.2009 	1
0.2016 	1
0.2023 	1
0.203 	1
0.2037 	1
0.2044 	1
0.2051 	1
0.2058 	1
0.2065 	1
0.2072 	1
0.2079 	1
0.2086 	1
0.2093 	1
0.21 	1
0.2107 	1
0.2114 	1
0.2121 	1
0.2128 	1
0.2135 	1
0.2142 	1
0.2149 	1
0.2156 	0.999977
0.2163 	0.999951
0.217 	0.999925
0.2177 	0.999898
0.2184 	0.999872
0.2191 	0.999846
0.2198 	0.99982
0.2205 	0.998473
0.2212 	0.996598
0.2219 	0.994723
0.2226 	0.992848
0.2233 	0.990973
0.224 	0.989098
0.2247 	0.987223
0.2254 	0.97299
0.2261 	0.949485
0.2268 	0.925981
0.2275 	0.902477
0.2282 	0.878972
0.2289 	0.855468
0.2296 	0.831964
0.2303 	0.792058
0.231 	0.730284
0.2317 	0.668509
0.2324 	0.606735
0.2331 	0.544961
0.2338 	0.483187
0.2345 	0.421413
0.2352 	0.364074
0.2359 	0.317842
0.2366 	0.271609
0.2373 	0.225376
0.238 	0.179142
0.2387 	0.132909
0.2394 	0.0866759
0.2401 	0.0461457
0.2408 	0.0398073
0.2415 	0.0334687
0.2422 	0.0271298
0.2429 	0.0207909
0.2436 	0.014452
0.2443 	0.00811308
0.245 	0.00177494
0.2457 	0.00153918
0.2464 	0.00130344
0.2471 	0.0010677
0.2478 	0.00083195
0.2485 	0.000596204
0.2492 	0.000360458
0.2499 	0.000124712
0.2506 	8.06913e-05
0.2513 	6.85942e-05
0.252 	5.64972e-05
0.2527 	4.44001e-05
0.2534 	3.23031e-05
0.2541 	2.0206e-05
0.2548 	8.10897e-06
0.2555 	4.21091e-06
0.2562 	3.59051e-06
0.2569 	2.97017e-06
0.2576 	2.34983e-06
0.2583 	1.7295e-06
0.259 	1.10916e-06
0.2597 	4.88828e-07
0.2604 	2.05976e-07
0.2611 	1.76109e-07
0.2618 	1.46249e-07
0.2625 	1.1639e-07
0.2632 	8.65323e-08
0.2639 	5.66742e-08
0.2646 	2.6816e-08
0.2653 	9.19166e-09
0.266 	7.8706e-09
0.2667 	6.55001e-09
0.2674 	5.22968e-09
0.2681 	3.90934e-09
0.2688 	2.589e-09
0.2695 	1.26867e-09
0.2702 	3.1294e-10
0.2709 	2.68156e-10
0.2716 	2.2339e-10
0.2723 	1.78643e-10
0.273 	1.33896e-10
0.2737 	8.91485e-11
0.2744 	4.44013e-11
0.2751 	5.93223e-12
0.2758 	5.0905e-12
0.2765 	4.24907e-12
0.2772 	3.40822e-12
0.2779 	2.56736e-12
0.2786 	1.7265e-12
0.2793 	8.85643e-13
0.28 	4.49013e-14
0.2807 	3.86201e-14
0.2814 	3.23412e-14
0.2821 	2.60675e-14
0.2828 	1.97938e-14
0.2835 	1.35202e-14
0.2842 	7.24648e-15
0.2849 	9.72813e-16
0.2856 	6.81637e-17
0.2863 	5.73169e-17
0.287 	4.6479e-17
0.2877 	3.5641e-17
0.2884 	2.4803e-17
0.2891 	1.3965e-17
0.2898 	3.12706e-18
0.2905 	2.88495e-20
0.2912 	2.43612e-20
0.2919 	1.98761e-20
0.2926 	1.53912e-20
0.2933 	1.09064e-20
0.294 	6.42148e-21
0.2947 	1.93661e-21
0.2954 	1.39628e-23
0.2961 	1.1838e-23
0.2968 	9.71334e-24
0.2975 	7.58872e-24
0.2982 	5.4641e-24
0.2989 	3.33947e-24
0.2996 	1.21485e-24
0.3003 	1.02832e-27
0.301 	8.75238e-28
0.3017 	7.22105e-28
0.3024 	5.68942e-28
0.3031 	4.15779e-28
0.3038 	2.62616e-28
0.3045 	1.09453e-28
0.3052 	7.07955e-32
0.3059 	6.04809e-32
0.3066 	5.01604e-32
0.3073 	3.9834e-32
0.308 	2.95075e-32
0.3087 	1.9181e-32
0.3094 	8.85457e-33
0.3101 	4.77838e-36
0.3108 	4.09672e-36
0.3115 	3.41462e-36
0.3122 	2.73174e-36
0.3129 	2.04885e-36
0.3136 	1.36597e-36
0.3143 	6.83092e-37
0.315 	3.14516e-40
0.3157 	2.7056e-40
0.3164 	2.26586e-40
0.3171 	1.8253e-40
0.3178 	1.38474e-40
0.3185 	9.44183e-41
0.3192 	5.03624e-41
0.3199 	6.30654e-42
0.3206 	1.73139e-44
0.3213 	1.45659e-44
0.322 	1.18103e-44
0.3227 	9.05475e-45
0.3234 	6.29918e-45
0.3241 	3.54362e-45
0.3248 	7.88057e-46
0.3255 	1.06655e-48
0.3262 	9.01138e-49
0.3269 	7.3518e-49
0.3276 	5.69181e-49
0.3283 	4.03182e-49
0.329 	2.37183e-49
0.3297 	7.11844e-50
0.3304 	6.28254e-53
0.3311 	5.32967e-53
0.3318 	4.37378e-53
0.3325 	3.41706e-53
0.3332 	2.46035e-53
0.3339 	1.50363e-53
0.3346 	5.46916e-54
0.3353 	3.51882e-57
0.336 	2.99664e-57
0.3367 	2.47295e-57
0.3374 	1.94841e-57
0.3381 	1.42386e-57
0.3388 	8.99323e-58
0.3395 	3.74782e-58
0.3402 	1.86713e-61
0.3409 	1.5959e-61
0.3416 	1.324e-61
0.3423 	1.05142e-61
0.343 	7.78844e-62
0.3437 	5.06267e-62
0.3444 	2.33689e-62
0.3451 	9.37256e-66
0.3458 	8.03913e-66
0.3465 	6.70315e-66
0.3472 	5.36256e-66
0.3479 	4.02198e-66
0.3486 	2.68139e-66
0.3493 	1.34081e-66
0.35 	4.45294e-70
0.3507 	3.83213e-70
0.3514 	3.21065e-70
0.3521 	2.58637e-70
0.3528 	1.9621e-70
0.3535 	1.33782e-70
0.3542 	7.13549e-71
0.3549 	8.92746e-72
0.3556 	1.73218e-74
0.3563 	1.45789e-74
0.357 	1.18208e-74
0.3577 	9.06272e-75
0.3584 	6.30461e-75
0.3591 	3.5465e-75
0.3598 	7.88394e-76
0.3605 	7.44386e-79
0.3612 	6.29196e-79
0.3619 	5.13336e-79
0.3626 	3.97424e-79
0.3633 	2.81513e-79
0.364 	1.65601e-79
0.3647 	4.96898e-80
0.3654 	3.0505e-83
0.3661 	2.58874e-83
0.3668 	2.12463e-83
0.3675 	1.65988e-83
0.3682 	1.19512e-83
0.3689 	7.30372e-84
0.3696 	2.6562e-84
0.3703 	1.19544e-87
0.371 	1.01834e-87
0.3717 	8.40479e-88
0.3724 	6.62199e-88
0.3731 	4.83919e-88
0.3738 	3.05639e-88
0.3745 	1.27359e-88
0.3752 	4.49153e-92
0.3759 	3.83996e-92
0.3766 	3.1862e-92
0.3773 	2.53022e-92
0.378 	1.87425e-92
0.3787 	1.21828e-92
0.3794 	5.62312e-93
0.3801 	1.62151e-96
0.3808 	1.39107e-96
0.3815 	1.16008e-96
0.3822 	9.28065e-97
0.3829 	6.96053e-97
0.3836 	4.6404e-97
0.3843 	2.32028e-97
0.385 	5.63046e-101
0.3857 	4.84617e-101
0.3864 	4.06085e-101
0.3871 	3.27125e-101
0.3878 	2.48165e-101
0.3885 	1.69205e-101
0.3892 	9.02445e-102
0.3899 	1.12845e-102
0.3906 	1.62517e-105
0.3913 	1.36803e-105
0.392 	1.10921e-105
0.3927 	8.50399e-106
0.3934 	5.91585e-106
0.3941 	3.32772e-106
0.3948 	7.39587e-107
0.3955 	5.24998e-110
0.3962 	4.43809e-110
0.3969 	3.62089e-110
0.3976 	2.80328e-110
0.3983 	1.98566e-110
0.399 	1.16805e-110
0.3997 	3.50436e-111
0.4004 	1.63446e-114
0.4011 	1.38717e-114
0.4018 	1.1385e-114
0.4025 	8.89452e-115
0.4032 	6.40408e-115
0.4039 	3.91363e-115
0.4046 	1.42318e-115
0.4053 	4.90455e-119
0.406 	4.17822e-119
0.4067 	3.44856e-119
0.4074 	2.71705e-119
0.4081 	1.98554e-119
0.4088 	1.25403e-119
0.4095 	5.22521e-120
0.4102 	1.41866e-123
0.4109 	1.21292e-123
0.4116 	1.00645e-123
0.4123 	7.99238e-124
0.413 	5.92029e-124
0.4137 	3.8482e-124
0.4144 	1.7761e-124
0.4151 	3.95732e-128
0.4158 	3.395e-128
0.4165 	2.83127e-128
0.4172 	2.26501e-128
0.4179 	1.69876e-128
0.4186 	1.1325e-128
0.4193 	5.66245e-129
0.42 	9.29269e-133
0.4207 	8.19248e-133
0.4214 	7.02659e-133
0.4221 	5.62723e-133
0.4228 	4.22787e-133
0.4235 	2.82851e-133
0.4242 	1.42914e-133
0.4249 	2.9783e-135
0.4256 	-1.31166e-134
0.4263 	-8.83216e-135
0.427 	-7.52868e-135
0.4277 	-6.22519e-135
0.4284 	-4.92171e-135
0.4291 	-3.61823e-135
0.4298 	-2.31474e-135
0.4305 	-1.57914e-135
0.4312 	-1.07049e-135
0.4319 	-8.91801e-136
0.4326 	-7.38496e-136
0.4333 	-5.85192e-136
0.434 	-4.31888e-136
0.4347 	-2.78583e-136
0.4354 	-1.81156e-136
0.4361 	-1.25607e-136
0.4368 	-1.003e-136
0.4375 	-8.32415e-137
0.4382 	-6.61826e-137
0.4389 	-4.91236e-137
0.4396 	-3.20647e-137
0.4403 	-1.98233e-137
0.441 	-1.4001e-137
0.4417 	-1.07597e-137
0.4424 	-8.95212e-138
0.4431 	-7.14458e-138
0.4438 	-5.33704e-138
0.4445 	-3.52949e-138
0.4452 	-2.0716e-138
0.4459 	-1.48712e-138
0.4466 	-1.10344e-138
0.4473 	-9.2057e-139
0.448 	-7.37696e-139
0.4487 	-5.54822e-139
0.4494 	-3.71949e-139
0.4501 	-2.07185e-139
0.4508 	-1.50933e-139
0.4515 	-1.08445e-139
0.4522 	-9.07308e-140
0.4529 	-7.30168e-140
0.4536 	-5.53027e-140
0.4543 	-3.75886e-140
0.455 	-1.99097e-140
0.4557 	-1.46764e-140
0.4564 	-1.02375e-140
0.4571 	-8.59048e-141
0.4578 	-6.94344e-141
0.4585 	-5.29639e-141
0.4592 	-3.64935e-141
0.4599 	-2.00231e-141
0.4606 	-1.37058e-141
0.4613 	-9.30357e-142
0.462 	-7.83014e-142
0.4627 	-6.35671e-142
0.4634 	-4.88328e-142
0.4641 	-3.40986e-142
0.4648 	-1.93643e-142
0.4655 	-1.23195e-142
0.4662 	-8.34795e-143
0.4669 	-6.88416e-143
0.4676 	-5.61327e-143
0.4683 	-4.34238e-143
0.469 	-3.07149e-143
0.4697 	-1.8006e-143
0.4704 	-1.0679e-143
0.4711 	-7.38554e-144
0.4718 	-5.84784e-144
0.4725 	-4.78898e-144
0.4732 	-3.73011e-144
0.4739 	-2.67124e-144
0.4746 	-1.61238e-144
0.4753 	-8.94186e-145
0.476 	-6.29909e-145
0.4767 	-4.80656e-145
0.4774 	-3.95305e-145
0.4781 	-3.09954e-145
0.4788 	-2.24603e-145
0.4795 	-1.39253e-145
0.4802 	-7.24283e-146
0.4809 	-5.18805e-146
0.4816 	-3.82741e-146
0.4823 	-3.16093e-146
0.483 	-2.49445e-146
0.4837 	-1.82797e-146
0.4844 	-1.16148e-146
0.4851 	-5.68165e-147
0.4858 	-4.13203e-147
0.4865 	-2.95559e-147
0.4872 	-2.45086e-147
0.4879 	-1.94613e-147
0.4886 	-1.4414e-147
0.4893 	-9.36672e-148
0.49 	-4.32654e-148
0.4907 	-3.18574e-148
0.4914 	-2.21495e-148
0.4921 	-1.84397e-148
0.4928 	-1.47298e-148
0.4935 	-1.102e-148
0.4942 	-7.31018e-149
0.4949 	-3.60034e-149
0.4956 	-2.37959e-149
0.4963 	-1.61176e-149
0.497 	-1.34696e-149
0.4977 	-1.08215e-149
0.4984 	-8.17341e-150
0.4991 	-5.52533e-150
0.4998 	-2.87725e-150
0.5005 	-1.72308e-150
0.5012 	-1.16594e-150
0.5019 	-9.55627e-151
0.5026 	-7.71987e-151
0.5033 	-5.88347e-151
0.504 	-4.04708e-151
0.5047 	-2.21068e-151
0.5054 	-1.21017e-151
0.5061 	-8.36117e-152
0.5068 	-6.58717e-152
0.5075 	-5.3495e-152
0.5082 	-4.11182e-152
0.5089 	-2.87415e-152
0.5096 	-1.63648e-152
0.5103 	-8.24776e-153
0.511 	-5.80614e-153
0.5117 	-4.41281e-153
0.5124 	-3.60186e-153
0.5131 	-2.79091e-153
0.5138 	-1.97996e-153
0.5145 	-1.16901e-153
0.5152 	-5.45607e-154
0.5159 	-3.90644e-154
0.5166 	-2.87331e-154
0.5173 	-2.35669e-154
0.518 	-1.84007e-154
0.5187 	-1.32345e-154
0.5194 	-8.06831e-155
0.5201 	-3.50427e-155
0.5208 	-2.54785e-155
0.5215 	-1.81872e-155
0.5222 	-1.49868e-155
0.5229 	-1.17864e-155
0.5236 	-8.58607e-156
0.5243 	-5.3857e-156
0.525 	-2.18859e-156
0.5257 	-1.6117e-156
0.5264 	-1.11928e-156
0.5271 	-9.26463e-157
0.5278 	-7.33644e-157
0.5285 	-5.40824e-157
0.5292 	-3.48005e-157
0.5299 	-1.55185e-157
0.5306 	-9.89312e-158
0.5313 	-6.69912e-158
0.532 	-5.56899e-158
0.5327 	-4.43886e-158
0.5334 	-3.30873e-158
0.5341 	-2.1786e-158
0.5348 	-1.04847e-158
0.5355 	-5.89638e-159
0.5362 	-3.99087e-159
0.5369 	-3.25619e-159
0.5376 	-2.61158e-159
0.5383 	-1.96696e-159
0.539 	-1.32235e-159
0.5397 	-6.77737e-160
0.5404 	-3.4134e-160
0.5411 	-2.35929e-160
0.5418 	-1.85223e-160
0.5425 	-1.49437e-160
0.5432 	-1.1365e-160
0.5439 	-7.78639e-161
0.5446 	-4.20774e-161
0.5453 	-1.92007e-161
0.546 	-1.35236e-161
0.5467 	-1.02527e-161
0.5474 	-8.3186e-162
0.5481 	-6.38447e-162
0.5488 	-4.45035e-162
0.5495 	-2.51623e-162
0.5502 	-1.04995e-162
0.5509 	-7.522e-163
0.5516 	-5.52428e-163
0.5523 	-4.50634e-163
0.553 	-3.4884e-163
0.5537 	-2.47046e-163
0.5544 	-1.45251e-163
0.5551 	-5.58423e-164
0.5558 	-4.06288e-164
0.5565 	-2.89848e-164
0.5572 	-2.37658e-164
0.5579 	-1.85467e-164
0.5586 	-1.33276e-164
0.5593 	-8.10857e-165
0.56 	-2.89354e-165
0.5607 	-2.13274e-165
0.5614 	-1.48159e-165
0.5621 	-1.2208e-165
0.5628 	-9.60014e-166
0.5635 	-6.99227e-166
0.5642 	-4.38439e-166
0.5649 	-1.77651e-166
0.5656 	-1.089e-166
0.5663 	-7.38256e-167
0.567 	-6.11176e-167
0.5677 	-4.84096e-167
0.5684 	-3.57015e-167
0.5691 	-2.29935e-167
0.5698 	-1.02854e-167
0.5705 	-5.41154e-168
0.5712 	-3.66833e-168
0.5719 	-2.98291e-168
0.5726 	-2.37886e-168
0.5733 	-1.77481e-168
0.574 	-1.17076e-168
0.5747 	-5.66703e-169
0.5754 	-2.61869e-169
0.5761 	-1.81274e-169
0.5768 	-1.41989e-169
0.5775 	-1.1397e-169
0.5782 	-8.59509e-170
0.5789 	-5.79319e-170
0.5796 	-2.9913e-170
0.5803 	-1.23478e-170
0.581 	-8.70979e-171
0.5817 	-6.59485e-171
0.5824 	-5.32604e-171
0.5831 	-4.05723e-171
0.5838 	-2.78842e-171
0.5845 	-1.51961e-171
0.5852 	-5.67702e-172
0.5859 	-4.07297e-172
0.5866 	-2.99034e-172
0.5873 	-2.42912e-172
0.588 	-1.8679e-172
0.5887 	-1.30669e-172
0.5894 	-7.45468e-173
0.5901 	-2.54646e-173
0.5908 	-1.8553e-173
0.5915 	-1.32435e-173
0.5922 	-1.08178e-173
0.5929 	-8.392e-174
0.5936 	-5.96624e-174
0.5943 	-3.54048e-174
0.595 	-1.11623e-174
0.5957 	-8.23944e-175
0.5964 	-5.73187e-175
0.5971 	-4.70673e-175
0.5978 	-3.6816e-175
0.5985 	-2.65646e-175
0.5992 	-1.63132e-175
0.5999 	-6.06188e-176
0.6006 	-3.57045e-176
0.6013 	-2.42573e-176
0.602 	-2.00191e-176
0.6027 	-1.5781e-176
0.6034 	-1.15429e-176
0.6041 	-7.30481e-177
0.6048 	-3.0667e-177
0.6055 	-1.51072e-177
0.6062 	-1.02657e-177
0.6069 	-8.32756e-178
0.6076 	-6.61277e-178
0.6083 	-4.89798e-178
0.609 	-3.18319e-178
0.6097 	-1.4684e-178
0.6104 	-6.24521e-179
0.6111 	-4.3329e-179
0.6118 	-3.38938e-179
0.6125 	-2.71007e-179
0.6132 	-2.03077e-179
0.6139 	-1.35147e-179
0.6146 	-6.72161e-180
0.6153 	-2.52398e-180
0.616 	-1.7841e-180
0.6167 	-1.3504e-180
0.6174 	-1.08681e-180
0.6181 	-8.23217e-181
0.6188 	-5.59624e-181
0.6195 	-2.96032e-181
0.6202 	-9.97836e-182
0.6209 	-7.17303e-182
0.6216 	-5.26922e-182
0.6223 	-4.26691e-182
0.623 	-3.26461e-182
0.6237 	-2.2623e-182
0.6244 	-1.26e-182
0.6251 	-3.86156e-183
0.6258 	-2.81862e-183
0.6265 	-2.01471e-183
0.6272 	-1.64102e-183
0.6279 	-1.26734e-183
0.6286 	-8.93657e-184
0.6293 	-5.19974e-184
0.63 	-1.4649e-184
0.6307 	-1.08326e-184
0.6314 	-7.55156e-185
0.6321 	-6.18507e-185
0.6328 	-4.81858e-185
0.6335 	-3.45209e-185
0.6342 	-2.0856e-185
0.6349 	-7.19116e-186
0.6356 	-4.07492e-186
0.6363 	-2.77612e-186
0.637 	-2.28576e-186
0.6377 	-1.7954e-186
0.6384 	-1.30504e-186
0.6391 	-8.14687e-187
0.6398 	-3.24329e-187
0.6405 	-1.50157e-187
0.6412 	-1.02335e-187
0.6419 	-8.28759e-188
0.6426 	-6.5599e-188
0.6433 	-4.8322e-188
0.644 	-3.1045e-188
0.6447 	-1.37681e-188
0.6454 	-5.42361e-189
0.6461 	-3.77296e-189
0.6468 	-2.94945e-189
0.6475 	-2.35152e-189
0.6482 	-1.75358e-189
0.6489 	-1.15565e-189
0.6496 	-5.57714e-190
0.6503 	-1.9215e-190
0.651 	-1.36157e-190
0.6517 	-1.03086e-190
0.6524 	-8.27487e-191
0.6531 	-6.24118e-191
0.6538 	-4.20749e-191
0.6545 	-2.17381e-191
0.6552 	-6.68184e-192
0.6559 	-4.81419e-192
0.6566 	-3.5403e-192
0.6573 	-2.86018e-192
0.658 	-2.18006e-192
0.6587 	-1.49994e-192
0.6594 	-8.19818e-193
0.6601 	-2.28228e-193
0.6608 	-1.66937e-193
0.6615 	-1.19544e-193
0.6622 	-9.71663e-194
0.6629 	-7.4789e-194
0.6636 	-5.24118e-194
0.6643 	-3.00345e-194
0.665 	-7.66777e-195
0.6657 	-5.68158e-195
0.6664 	-3.97072e-195
0.6671 	-3.24604e-195
0.6678 	-2.52136e-195
0.6685 	-1.79667e-195
0.6692 	-1.07199e-195
0.6699 	-3.47307e-196
0.6706 	-1.89933e-196
0.6713 	-1.29803e-196
0.672 	-1.06692e-196
0.6727 	-8.35813e-197
0.6734 	-6.04706e-197
0.6741 	-3.73599e-197
0.6748 	-1.42493e-197
0.6755 	-6.24074e-198
0.6762 	-4.26706e-198
0.6769 	-3.45187e-198
0.6776 	-2.72578e-198
0.6783 	-1.9997e-198
0.679 	-1.27362e-198
0.6797 	-5.4754e-199
0.6804 	-2.01663e-199
0.6811 	-1.40704e-199
0.6818 	-1.09977e-199
0.6825 	-8.74949e-200
0.6832 	-6.50132e-200
0.6839 	-4.25315e-200
0.6846 	-2.00498e-200
0.6853 	-6.4118e-201
0.686 	-4.55559e-201
0.6867 	-3.45149e-201
0.6874 	-2.76525e-201
0.6881 	-2.079e-201
0.6888 	-1.39275e-201
0.6895 	-7.06498e-202
0.6902 	-2.00529e-202
0.6909 	-1.44811e-202
0.6916 	-1.06627e-202
0.6923 	-8.59773e-203
0.693 	-6.53279e-203
0.6937 	-4.46785e-203
0.6944 	-2.40291e-203
0.6951 	-6.09387e-204
0.6958 	-4.41648e-204
0.6965 	-3.12201e-204
0.6972 	-2.5168e-204
0.6979 	-1.91159e-204
0.6986 	-1.30637e-204
0.6993 	-7.01158e-205
0.7 	-9.61909e-206
