0 	1
0.0007 	1
0.0014 	1
0.0021 	1
0.0028 	1
0.0035 	1
0.0042 	1
0.0049 	1
0.0056 	1
0.0063 	1
0.007 	1
0.0077 	1
0.0084 	1
0.0098 	1
0.0105 	1
0.0112 	1
0.0119 	1
0.0126 	1
0.0133 	1
0.014 	1
0.0147 	1
0.0154 	1
0.0161 	1
0.0168 	1
0.0175 	1
0.0182 	1
0.0189 	1
0.0196 	1
0.0203 	1
0.021 	1
0.0217 	1
0.0231 	1
0.0238 	1
0.0245 	1
0.0252 	1
0.0259 	1
0.0266 	1
0.0273 	1
0.028 	1
0.0287 	1
0.0294 	1
0.0301 	1
0.0308 	1
0.0315 	1
0.0322 	1
0.0329 	1
0.0336 	1
0.0343 	1
0.035 	1
0.0357 	1
0.0364 	1
0.0371 	1
0.0378 	1
0.0385 	1
0.0392 	1
0.0399 	1
0.0406 	1
0.0413 	1
0.042 	1
0.0427 	1
0.0434 	1
0.0441 	1
0.0448 	1
0.0455 	1
0.0462 	1
0.0469 	1
0.0476 	1
0.0483 	1
0.049 	1
0.0497 	1
0.0504 	1
0.0511 	1
0.0518 	1
0.0525 	1
0.0532 	1
0.0539 	1
0.0546 	1
0.0553 	1
0.056 	1
0.0567 	1
0.0574 	1
0.0581 	1
0.0588 	1
0.0595 	1
0.0602 	1
0.0609 	1
0.0616 	1
0.0623 	1
0.063 	1
0.0637 	1
0.0644 	1
0.0651 	1
0.0658 	1
0.0665 	1
0.0672 	1
0.0679 	1
0.0686 	1
0.0693 	1
0.07 	1
0.0707 	1
0.0714 	1
0.0721 	1
0.0728 	1
0.0735 	1
0.0742 	1
0.0749 	1
0.0756 	1
0.0763 	1
0.077 	1
0.0777 	1
0.0784 	1
0.0791 	1
0.0798 	1
0.0805 	1
0.0812 	1
0.0819 	1
0.0826 	1
0.0833 	1
0.084 	1
0.0847 	1
0.0854 	1
0.0861 	1
0.0868 	1
0.0875 	1
0.0882 	1
0.0889 	1
0.0896 	1
0.0903 	1
0.091 	1
0.0917 	1
0.0924 	1
0.0931 	1
0.0938 	1
0.0945 	1
0.0952 	1
0.0959 	1
0.0966 	1
0.0973 	1
0.098 	1
0.0987 	1
0.0994 	1
0.1001 	1
0.1008 	1
0.1015 	1
0.1022 	1
0.1029 	1
0.1036 	1
0.1043 	1
0.105 	1
0.1057 	1
0.1064 	1
0.1071 	1
0.1078 	1
0.1085 	1
0.1092 	1
0.1099 	1
0.1106 	1
0.1113 	1
0.1127 	1
0.1134 	1
0.1141 	1
0.1148 	1
0.1155 	1
0.1162 	1
0.1169 	1
0.1183 	1
0.119 	1
0.1197 	1
0.1204 	1
0.1211 	1
0.1218 	1
0.1225 	1
0.1232 	1
0.1239 	1
0.1246 	1
0.1253 	1
0.126 	1
0.1267 	1
0.1274 	1
0.1281 	1
0.1295 	1
0.1302 	1
0.1316 	1
0.1323 	1
0.133 	1
0.1337 	1
0.1344 	1
0.1351 	1
0.1358 	1
0.1365 	1
0.1379 	1
0.1386 	1
0.1393 	1
0.14 	1
0.1407 	1
0.1414 	1
0.1421 	1
0.1428 	1
0.1435 	1
0.1442 	1
0.1449 	1
0.1456 	1
0.1463 	1
0.147 	1
0.1477 	1
0.1484 	1
0.1491 	1
0.1498 	1
0.1505 	1
0.1512 	1
0.1519 	1
0.1526 	1
0.1533 	1
0.154 	1
0.1547 	1
0.1554 	1
0.1561 	1
0.1568 	1
0.1575 	1
0.1582 	1
0.1589 	1
0.1596 	1
0.1603 	1
0.161 	1
0.1617 	1
0.1624 	1
0.1631 	1
0.1638 	1
0.1645 	1
0.1652 	1
0.1659 	1
0.1666 	1
0.1673 	1
0.168 	1
0.1687 	1
0.1694 	1
0.1701 	1
0.1708 	1
0.1715 	1
0.1722 	1
0.1729 	1
0.1736 	1
0.1743 	1
0.175 	1
0.1757 	1
0.1764 	1
0.1771 	1
0.1778 	1
0.1785 	1
0.1792 	1
0.1799 	1
0.1806 	1
0.1813 	1
0.182 	1
0.1827 	1
0.1834 	1
0.1848 	1
0.1855 	1
0.1862 	1
0.1869 	1
0.1876 	1
0.1883 	1
0.189 	1
0.1897 	1
0.1904 	1
0.1911 	1
0.1918 	1
0.1925 	1
0.1939 	1
0.1946 	1
0.1953 	1
0.196 	1
0.1967 	1
0.1974 	1
0.1981 	1
0.1988 	1
0.1995 	1
0.2002 	1
0.2009 	1
0.2016 	1
0.2023 	1
0.203 	1
0.2037 	1
0.2044 	1
0.2051 	1
0.2058 	1
0.2065 	1
0.2072 	1
0.2079 	1
0.2086 	1
0.2093 	1
0.21 	1
0.2107 	1
0.2114 	1
0.2121 	1
0.2128 	1
0.2142 	1
0.2149 	1
0.2156 	1
0.2163 	1
0.217 	1
0.2177 	1
0.2184 	1
0.2191 	1
0.2198 	1
0.2205 	1
0.2212 	1
0.2219 	1
0.2226 	1
0.2233 	1
0.224 	1
0.2247 	1
0.2254 	1
0.2261 	1
0.2268 	1
0.2275 	1
0.2282 	1
0.2289 	1
0.2296 	1
0.2303 	1
0.231 	1
0.2317 	1
0.2324 	1
0.2331 	1
0.2338 	1
0.2345 	1
0.2352 	1
0.2359 	1
0.2366 	1
0.2373 	1
0.238 	1
0.2387 	1
0.2394 	1
0.2401 	0.999964
0.2408 	0.999714
0.2415 	0.99945
0.2422 	0.99916
0.2429 	0.99887
0.2443 	0.99829
0.245 	0.998
0.2457 	0.928253
0.2464 	0.858513
0.2471 	0.788801
0.2478 	0.719088
0.2485 	0.649375
0.2492 	0.579662
0.2499 	0.509949
0.2506 	0.440205
0.2513 	0.370457
0.252 	0.300747
0.2527 	0.231037
0.2534 	0.161327
0.2548 	0.0219072
0.2555 	0.0018093
0.2562 	0.00155632
0.2569 	0.00127162
0.2576 	0.000984483
0.2583 	0.000697343
0.259 	0.000410203
0.2597 	0.000123062
0.2604 	2.10716e-09
0.2611 	1.84847e-09
0.2618 	1.53006e-09
0.2625 	1.19536e-09
0.2632 	8.60658e-10
0.2639 	5.25958e-10
0.2646 	1.91258e-10
0.2653 	5.78613e-16
0.266 	5.12339e-16
0.2667 	4.3003e-16
0.2674 	3.38811e-16
0.2681 	2.47593e-16
0.2688 	1.56375e-16
0.2695 	6.51562e-17
0.2702 	1.98919e-22
0.2709 	1.77604e-22
0.2716 	1.51365e-22
0.2723 	1.20202e-22
0.273 	8.90385e-23
0.2737 	5.78751e-23
0.2744 	2.67116e-23
0.2751 	7.52078e-29
0.2758 	6.76278e-29
0.2765 	5.85713e-29
0.2772 	4.68571e-29
0.2779 	3.51428e-29
0.2786 	2.34285e-29
0.2793 	1.17143e-29
0.28 	3.27734e-35
0.2807 	2.96409e-35
0.2814 	2.60925e-35
0.2821 	2.1019e-35
0.2828 	1.59454e-35
0.2835 	1.08719e-35
0.2842 	5.79835e-36
0.2849 	7.24807e-37
0.2856 	1.47065e-41
0.2863 	1.31514e-41
0.287 	1.06633e-41
0.2877 	8.17519e-42
0.2884 	5.68709e-42
0.2891 	3.19899e-42
0.2898 	7.10895e-43
0.2905 	8.74185e-48
0.2912 	7.8222e-48
0.2919 	6.41205e-48
0.2926 	4.96417e-48
0.2933 	3.51629e-48
0.294 	2.06841e-48
0.2947 	6.20531e-49
0.2954 	1.05401e-53
0.2961 	9.45583e-54
0.2968 	7.87071e-54
0.2975 	6.14899e-54
0.2982 	4.42728e-54
0.2989 	2.70557e-54
0.2996 	9.83852e-55
0.3003 	1.5116e-59
0.301 	1.3615e-59
0.3017 	1.15094e-59
0.3024 	9.06802e-60
0.3031 	6.62663e-60
0.3038 	4.18525e-60
0.3045 	1.74387e-60
0.3052 	2.25449e-65
0.3059 	2.03844e-65
0.3066 	1.75025e-65
0.3073 	1.3899e-65
0.308 	1.02956e-65
0.3094 	3.0887e-66
0.3101 	3.39249e-71
0.3108 	3.0809e-71
0.3115 	2.68855e-71
0.3122 	2.15084e-71
0.3129 	1.61313e-71
0.3136 	1.07542e-71
0.3143 	5.37714e-72
0.315 	4.67058e-77
0.3157 	4.25673e-77
0.3164 	3.7743e-77
0.3171 	3.04041e-77
0.3178 	2.30652e-77
0.3185 	1.57263e-77
0.3199 	1.04847e-78
0.3206 	5.32111e-83
0.3213 	4.79174e-83
0.3227 	2.97865e-83
0.3234 	2.07211e-83
0.3241 	1.16556e-83
0.3248 	2.59019e-84
0.3255 	5.99823e-89
0.3262 	5.4502e-89
0.3269 	4.47314e-89
0.3276 	3.46308e-89
0.3283 	2.45302e-89
0.329 	1.44295e-89
0.3297 	4.3289e-90
0.3304 	6.08404e-95
0.3311 	5.54202e-95
0.3318 	4.63008e-95
0.3325 	3.61725e-95
0.3332 	2.60442e-95
0.3339 	1.59159e-95
0.3346 	5.78765e-96
0.3353 	5.5452e-101
0.336 	5.06217e-101
0.3367 	4.3029e-101
0.3374 	3.39017e-101
0.3381 	2.47743e-101
0.3388 	1.56469e-101
0.3395 	6.51959e-102
0.3402 	4.53811e-107
0.3409 	4.15076e-107
0.3416 	3.58776e-107
0.3423 	2.8491e-107
0.343 	2.11045e-107
0.3437 	1.37179e-107
0.3444 	6.33136e-108
0.3451 	3.33399e-113
0.3458 	3.05466e-113
0.3465 	2.68341e-113
0.3472 	2.14673e-113
0.3479 	1.61005e-113
0.3486 	1.07337e-113
0.3493 	5.36684e-114
0.35 	2.19919e-119
0.3507 	2.01807e-119
0.3514 	1.80073e-119
0.3521 	1.45059e-119
0.3528 	1.10045e-119
0.3535 	7.50306e-120
0.3542 	4.00164e-120
0.3549 	5.00216e-121
0.3556 	1.1975e-125
0.3563 	1.08477e-125
0.3577 	6.74316e-126
0.3584 	4.6909e-126
0.3591 	2.63863e-126
0.3598 	5.86368e-127
0.3605 	6.38712e-132
0.3612 	5.83297e-132
0.3619 	4.7892e-132
0.3626 	3.70777e-132
0.3633 	2.62634e-132
0.364 	1.54491e-132
0.3647 	4.63474e-133
0.3654 	3.06609e-138
0.3661 	2.80418e-138
0.3668 	2.34501e-138
0.3675 	1.83204e-138
0.3682 	1.31907e-138
0.3689 	8.06096e-139
0.3696 	2.93127e-139
0.3703 	1.32737e-144
0.371 	1.21564e-144
0.3717 	1.0347e-144
0.3724 	8.15327e-145
0.3731 	5.9595e-145
0.3738 	3.76574e-145
0.3745 	1.57198e-145
0.3752 	4.88513e-148
0.3759 	4.47122e-148
0.3766 	3.86676e-148
0.3773 	3.07174e-148
0.378 	2.27672e-148
0.3787 	1.4817e-148
0.3794 	6.86673e-149
0.3801 	5.16336e-151
0.3808 	4.73063e-151
0.3815 	4.1559e-151
0.3822 	3.32558e-151
0.3829 	2.49526e-151
0.3836 	1.66494e-151
0.3843 	8.34616e-152
0.385 	4.29499e-154
0.3857 	3.93296e-154
0.3864 	3.5027e-154
0.3871 	2.82225e-154
0.3878 	2.14181e-154
0.3885 	1.46136e-154
0.3892 	7.80918e-155
0.3899 	1.00473e-155
0.3906 	3.0245e-157
0.3913 	2.72535e-157
0.392 	2.21022e-157
0.3927 	1.69508e-157
0.3934 	1.17995e-157
0.3941 	6.64814e-158
0.3948 	1.4968e-158
0.3955 	2.34164e-160
0.3962 	2.12132e-160
0.3969 	1.74095e-160
0.3976 	1.34827e-160
0.3983 	9.55589e-161
0.399 	5.62908e-161
0.3997 	1.70227e-161
0.4004 	1.83714e-163
0.4011 	1.66612e-163
0.4018 	1.39069e-163
0.4025 	1.08679e-163
0.4032 	7.82898e-164
0.4039 	4.79e-164
0.4046 	1.75103e-164
0.4053 	1.39357e-166
0.406 	1.26692e-166
0.4067 	1.07521e-166
0.4074 	8.47346e-167
0.4081 	6.19483e-167
0.4088 	3.9162e-167
0.4095 	1.63758e-167
0.4102 	9.73883e-170
0.4109 	8.87877e-170
0.4116 	7.66077e-170
0.4123 	6.08483e-170
0.413 	4.50888e-170
0.4144 	1.35699e-170
0.4151 	6.102e-173
0.4158 	5.5779e-173
0.4165 	4.8918e-173
0.4172 	3.91412e-173
0.4179 	2.93644e-173
0.4193 	9.81076e-174
0.42 	3.3943e-176
0.4207 	3.10996e-176
0.4214 	2.77116e-176
0.4221 	2.23264e-176
0.4228 	1.69413e-176
0.4235 	1.15562e-176
0.4242 	6.17101e-177
0.4249 	7.85864e-178
0.4256 	1.53806e-179
0.4263 	1.39177e-179
0.427 	1.1286e-179
0.4277 	8.65427e-180
0.4284 	6.02255e-180
0.4291 	3.39083e-180
0.4298 	7.59115e-181
0.4305 	6.77201e-183
0.4312 	6.18009e-183
0.4319 	5.07441e-183
0.4326 	3.92921e-183
0.4333 	2.78401e-183
0.434 	1.6388e-183
0.4347 	4.93601e-184
0.4354 	2.66872e-186
0.4361 	2.43977e-186
0.4368 	2.04022e-186
0.4375 	1.59413e-186
0.4382 	1.14805e-186
0.4389 	7.01968e-187
0.4396 	2.55885e-187
0.4403 	9.46796e-190
0.441 	8.66924e-190
0.4417 	7.37828e-190
0.4424 	5.81385e-190
0.4431 	4.24942e-190
0.4438 	2.68499e-190
0.4445 	1.12056e-190
0.4452 	3.04168e-193
0.4459 	2.78901e-193
0.4466 	2.41424e-193
0.4473 	1.91737e-193
0.448 	1.42051e-193
0.4487 	9.23647e-194
0.4494 	4.26783e-194
0.4501 	8.89903e-197
0.4508 	8.17027e-197
0.4515 	7.18849e-197
0.4522 	5.75127e-197
0.4529 	4.31405e-197
0.4543 	1.43961e-197
0.455 	2.38404e-200
0.4557 	2.19141e-200
0.4564 	1.95849e-200
0.4571 	1.57778e-200
0.4578 	1.19708e-200
0.4585 	8.16374e-201
0.4592 	4.35671e-201
0.4599 	5.49674e-202
0.4606 	5.40996e-204
0.4613 	4.90818e-204
0.462 	3.97985e-204
0.4627 	3.05153e-204
0.4634 	2.1232e-204
0.4641 	1.19487e-204
0.4648 	2.66547e-205
0.4655 	1.23547e-207
0.4662 	1.1298e-207
0.4669 	9.27771e-208
0.4676 	7.18337e-208
0.4683 	5.08902e-208
0.4697 	9.00327e-209
0.4711 	2.40122e-211
0.4718 	2.00862e-211
0.4725 	1.56935e-211
0.4732 	1.13009e-211
0.4739 	6.90817e-212
0.4746 	2.51549e-212
0.4753 	5.19942e-215
0.476 	4.76581e-215
0.4767 	4.05776e-215
0.4774 	3.19723e-215
0.4781 	2.33671e-215
0.4788 	1.47618e-215
0.4795 	6.15652e-216
0.4802 	9.66937e-219
0.4809 	8.87278e-219
0.4816 	7.68369e-219
0.4823 	6.10211e-219
0.483 	4.52053e-219
0.4837 	2.93894e-219
0.4844 	1.35736e-219
0.4851 	1.69407e-222
0.4858 	1.55617e-222
0.4865 	1.3697e-222
0.4872 	1.09581e-222
0.4879 	8.21931e-223
0.4886 	5.48048e-223
0.4893 	2.74164e-223
0.49 	2.80739e-226
0.4907 	2.58153e-226
0.4914 	2.30792e-226
0.4921 	1.85924e-226
0.4928 	1.41057e-226
0.4935 	9.61889e-227
0.4942 	5.13211e-227
0.4949 	6.45335e-228
0.4956 	4.06584e-230
0.4963 	3.68981e-230
0.497 	2.99186e-230
0.4977 	2.29391e-230
0.4984 	1.59596e-230
0.4998 	2.00061e-231
0.5005 	6.10034e-234
0.5012 	5.57981e-234
0.5019 	4.58207e-234
0.5026 	3.54761e-234
0.5033 	2.51316e-234
0.504 	1.47871e-234
0.5047 	4.44254e-235
0.5054 	8.74558e-238
0.5061 	8.00846e-238
0.5068 	6.69928e-238
0.5075 	5.23408e-238
0.5082 	3.76889e-238
0.5089 	2.30369e-238
0.5096 	8.38498e-239
0.5103 	1.20105e-241
0.511 	1.10104e-241
0.5117 	9.37505e-242
0.5124 	7.38674e-242
0.5131 	5.39844e-242
0.5138 	3.41014e-242
0.5145 	1.42184e-242
0.5152 	1.58331e-245
0.5159 	1.45305e-245
0.5166 	1.2584e-245
0.5173 	9.99361e-246
0.518 	7.4032e-246
0.5187 	4.81279e-246
0.5194 	2.22238e-246
0.5201 	2.00676e-249
0.5208 	1.84363e-249
0.5215 	1.62285e-249
0.5222 	1.29833e-249
0.5229 	9.7381e-250
0.5236 	6.49288e-250
0.5243 	3.24767e-250
0.525 	2.44823e-253
0.5257 	2.25155e-253
0.5264 	2.01314e-253
0.5271 	1.62175e-253
0.5278 	1.23036e-253
0.5285 	8.38974e-254
0.5299 	5.61971e-255
0.5306 	2.64875e-257
0.5313 	2.40413e-257
0.532 	1.94935e-257
0.5327 	1.49458e-257
0.5334 	1.0398e-257
0.5341 	5.85029e-258
0.5348 	1.30254e-258
0.5355 	3.00303e-261
0.5362 	2.74725e-261
0.5369 	2.25602e-261
0.5376 	1.74667e-261
0.5383 	1.23733e-261
0.539 	7.2798e-262
0.5397 	2.18635e-262
0.5404 	3.28208e-265
0.5411 	3.00598e-265
0.5418 	2.51467e-265
0.5425 	1.96466e-265
0.5432 	1.41466e-265
0.5439 	8.64652e-266
0.5446 	3.14647e-266
0.5453 	3.45827e-269
0.546 	3.17089e-269
0.5467 	2.70011e-269
0.5474 	2.12744e-269
0.5481 	1.55476e-269
0.5488 	9.82087e-270
0.5495 	4.09413e-270
0.5502 	3.51325e-273
0.5509 	3.22482e-273
0.5516 	2.79311e-273
0.5523 	2.21813e-273
0.553 	1.64315e-273
0.5537 	1.06817e-273
0.5544 	4.93188e-274
0.5551 	3.44119e-277
0.5558 	3.16202e-277
0.5565 	2.78374e-277
0.5572 	2.22706e-277
0.5579 	1.67038e-277
0.5586 	1.11369e-277
0.5593 	5.57009e-278
0.56 	3.24989e-281
0.5607 	2.98933e-281
0.5614 	2.67323e-281
0.5621 	2.15349e-281
0.5628 	1.63375e-281
0.5635 	1.11402e-281
0.5649 	7.45409e-283
0.5656 	2.72493e-285
0.5663 	2.47373e-285
0.567 	2.00577e-285
0.5677 	1.53782e-285
0.5691 	6.0191e-286
0.5698 	1.33955e-286
0.5705 	2.39526e-289
0.5712 	2.19166e-289
0.5719 	1.79979e-289
0.5726 	1.39343e-289
0.5733 	9.87075e-290
0.574 	5.8072e-290
0.5747 	1.74365e-290
0.5754 	2.0306e-293
0.5761 	1.8601e-293
0.5768 	1.55613e-293
0.5775 	1.21577e-293
0.5782 	8.75401e-294
0.5789 	5.35034e-294
0.5796 	1.94667e-294
0.5803 	1.66053e-297
0.581 	1.52278e-297
0.5817 	1.29677e-297
0.5824 	1.02172e-297
0.5831 	7.46681e-298
0.5845 	1.96594e-298
0.5852 	1.3101e-301
0.5859 	1.20271e-301
0.5866 	1.04178e-301
0.5873 	8.27318e-302
0.588 	6.12854e-302
0.5887 	3.98391e-302
0.5894 	1.83927e-302
0.5901 	9.97461e-306
0.5908 	9.16657e-306
0.5915 	8.07068e-306
0.5922 	6.45669e-306
0.5929 	4.8427e-306
0.5936 	3.22871e-306
0.5943 	1.61472e-306
0.595 	7.33039e-310
0.5957 	6.74342e-310
0.5964 	6.03096e-310
0.5971 	4.85838e-310
0.5978 	3.68579e-310
0.5985 	2.5132e-310
0.5992 	1.34061e-310
0.5999 	1.68027e-311
0.6006 	4.78935e-314
0.6013 	4.34828e-314
0.602 	3.52567e-314
0.6027 	2.70306e-314
0.6034 	1.88045e-314
0.6041 	1.05785e-314
0.6048 	2.35238e-315
0.6055 	1.9531e-318
0.6062 	1.78738e-318
0.6069 	1.46779e-318
0.6076 	1.13635e-318
0.609 	4.73478e-319
0.6097 	1.42044e-319
0.6104 	0
0.6111 	0
0.6118 	0
0.6125 	0
0.6132 	0
0.6139 	0
0.6146 	0
0.6153 	0
0.616 	0
0.6167 	0
0.6174 	0
0.6181 	0
0.6188 	0
0.6195 	0
0.6202 	0
0.6209 	0
0.6216 	0
0.6223 	0
0.623 	0
0.6237 	0
0.6244 	0
0.6251 	0
0.6258 	0
0.6265 	0
0.6272 	0
0.6279 	0
0.6293 	0
0.63 	0
0.6307 	0
0.6314 	0
0.6321 	0
0.6328 	0
0.6335 	0
0.6342 	0
0.6349 	0
0.6356 	0
0.6363 	0
0.6377 	0
0.6384 	0
0.6391 	0
0.6398 	0
0.6405 	0
0.6412 	0
0.6419 	0
0.6426 	0
0.6433 	0
0.644 	0
0.6447 	0
0.6454 	0
0.6461 	0
0.6468 	0
0.6475 	0
0.6482 	0
0.6489 	0
0.6496 	0
0.6503 	0
0.651 	0
0.6517 	0
0.6524 	0
0.6531 	0
0.6538 	0
0.6545 	0
0.6552 	0
0.6559 	0
0.6566 	0
0.6573 	0
0.658 	0
0.6587 	0
0.6594 	0
0.6601 	0
0.6608 	0
0.6615 	0
0.6622 	0
0.6629 	0
0.6636 	0
0.6643 	0
0.665 	0
0.6657 	0
0.6664 	0
0.6671 	0
0.6678 	0
0.6685 	0
0.6692 	0
0.6699 	0
0.6706 	0
0.6713 	0
0.6727 	0
0.6734 	0
0.6741 	0
0.6748 	0
0.6755 	0
0.6762 	0
0.6769 	0
0.6776 	0
0.6783 	0
0.679 	0
0.6797 	0
0.6804 	0
0.6811 	0
0.6818 	0
0.6825 	0
0.6832 	0
0.6839 	0
0.6846 	0
0.6853 	0
0.686 	0
0.6867 	0
0.6874 	0
0.6881 	0
0.6888 	0
0.6895 	0
0.6902 	0
0.6909 	0
0.6916 	0
0.6923 	0
0.693 	0
0.6937 	0
0.6944 	0
0.6951 	0
0.6958 	0
0.6965 	0
0.6979 	0
0.6993 	0
0.7 	0
