0 	1
0.0007 	1
0.0014 	1
0.0021 	1
0.0028 	1
0.0035 	1
0.0042 	1
0.0049 	1
0.0056 	1
0.0063 	1
0.007 	1
0.0077 	1
0.0084 	1
0.0091 	1
0.0098 	1
0.0105 	1
0.0112 	1
0.0119 	1
0.0126 	1
0.0133 	1
0.014 	1
0.0147 	1
0.0154 	1
0.0161 	1
0.0168 	1
0.0175 	1
0.0182 	1
0.0189 	1
0.0196 	1
0.0203 	1
0.021 	1
0.0217 	1
0.0224 	1
0.0231 	1
0.0238 	1
0.0245 	1
0.0252 	1
0.0259 	1
0.0266 	1
0.0273 	1
0.028 	1
0.0287 	1
0.0294 	1
0.0301 	1
0.0308 	1
0.0315 	1
0.0322 	1
0.0329 	1
0.0336 	1
0.0343 	1
0.035 	1
0.0357 	1
0.0364 	1
0.0371 	1
0.0378 	1
0.0385 	1
0.0392 	1
0.0399 	1
0.0406 	1
0.0413 	1
0.042 	1
0.0427 	1
0.0434 	1
0.0441 	1
0.0448 	1
0.0455 	1
0.0462 	1
0.0469 	1
0.0476 	1
0.0483 	1
0.049 	1
0.0497 	1
0.0504 	1
0.0511 	1
0.0518 	1
0.0525 	1
0.0532 	1
0.0539 	1
0.0546 	1
0.0553 	1
0.056 	1
0.0567 	1
0.0574 	1
0.0581 	1
0.0588 	1
0.0595 	1
0.0602 	1
0.0609 	1
0.0616 	1
0.0623 	1
0.063 	1
0.0637 	1
0.0644 	1
0.0651 	1
0.0658 	1
0.0665 	1
0.0672 	1
0.0679 	1
0.0686 	1
0.0693 	1
0.07 	1
0.0707 	1
0.0714 	1
0.0721 	1
0.0728 	1
0.0735 	1
0.0742 	1
0.0749 	1
0.0756 	1
0.0763 	1
0.077 	1
0.0777 	1
0.0784 	1
0.0791 	1
0.0798 	1
0.0805 	1
0.0812 	1
0.0819 	1
0.0826 	1
0.0833 	1
0.084 	1
0.0847 	1
0.0854 	1
0.0861 	1
0.0868 	1
0.0875 	1
0.0882 	1
0.0889 	1
0.0896 	1
0.0903 	1
0.091 	1
0.0917 	1
0.0924 	1
0.0931 	1
0.0938 	1
0.0945 	1
0.0952 	1
0.0959 	1
0.0966 	1
0.0973 	1
0.098 	1
0.0987 	1
0.0994 	1
0.1001 	1
0.1008 	1
0.1015 	1
0.1022 	1
0.1029 	1
0.1036 	1
0.1043 	1
0.105 	1
0.1057 	1
0.1064 	1
0.1071 	1
0.1078 	1
0.1085 	1
0.1092 	1
0.1099 	1
0.1106 	1
0.1113 	1
0.112 	1
0.1127 	1
0.1134 	1
0.1141 	1
0.1148 	1
0.1155 	1
0.1162 	1
0.1169 	1
0.1176 	1
0.1183 	1
0.119 	1
0.1197 	1
0.1204 	1
0.1211 	1
0.1218 	1
0.1225 	1
0.1232 	1
0.1239 	1
0.1246 	1
0.1253 	1
0.126 	1
0.1267 	1
0.1274 	1
0.1281 	1
0.1288 	1
0.1295 	1
0.1302 	1
0.1309 	1
0.1316 	1
0.1323 	1
0.133 	1
0.1337 	1
0.1344 	1
0.1351 	1
0.1358 	1
0.1365 	1
0.1372 	1
0.1379 	1
0.1386 	1
0.1393 	1
0.14 	1
0.1407 	1
0.1414 	1
0.1421 	1
0.1428 	1
0.1435 	1
0.1442 	1
0.1449 	1
0.1456 	1
0.1463 	1
0.147 	1
0.1477 	1
0.1484 	1
0.1491 	1
0.1498 	1
0.1505 	1
0.1512 	1
0.1519 	1
0.1526 	1
0.1533 	1
0.154 	1
0.1547 	1
0.1554 	1
0.1561 	1
0.1568 	1
0.1575 	1
0.1582 	1
0.1589 	1
0.1596 	1
0.1603 	1
0.161 	1
0.1617 	1
0.1624 	1
0.1631 	1
0.1638 	1
0.1645 	1
0.1652 	1
0.1659 	1
0.1666 	1
0.1673 	1
0.168 	1
0.1687 	1
0.1694 	1
0.1701 	1
0.1708 	1
0.1715 	1
0.1722 	1
0.1729 	1
0.1736 	1
0.1743 	1
0.175 	1
0.1757 	1
0.1764 	1
0.1771 	1
0.1778 	1
0.1785 	1
0.1792 	1
0.1799 	1
0.1806 	1
0.1813 	1
0.182 	1
0.1827 	1
0.1834 	1
0.1841 	0.999999
0.1848 	0.999999
0.1855 	0.999998
0.1862 	0.999997
0.1869 	0.999996
0.1876 	0.999994
0.1883 	0.999993
0.189 	0.999991
0.1897 	0.99999
0.1904 	0.999981
0.1911 	0.999965
0.1918 	0.999949
0.1925 	0.999933
0.1932 	0.999917
0.1939 	0.999901
0.1946 	0.999885
0.1953 	0.999799
0.196 	0.999592
0.1967 	0.999384
0.1974 	0.999177
0.1981 	0.99897
0.1988 	0.998763
0.1995 	0.998556
0.2002 	0.997329
0.2009 	0.992569
0.2016 	0.987809
0.2023 	0.983049
0.203 	0.978289
0.2037 	0.973529
0.2044 	0.968769
0.2051 	0.960719
0.2058 	0.918679
0.2065 	0.876638
0.2072 	0.834599
0.2079 	0.79256
0.2086 	0.750521
0.2093 	0.708481
0.21 	0.66436
0.2107 	0.601064
0.2114 	0.538492
0.2121 	0.475919
0.2128 	0.413345
0.2135 	0.350772
0.2142 	0.288199
0.2149 	0.225626
0.2156 	0.191917
0.2163 	0.164217
0.217 	0.136515
0.2177 	0.108814
0.2184 	0.0811124
0.2191 	0.0534109
0.2198 	0.0257093
0.2205 	0.0172177
0.2212 	0.0145662
0.2219 	0.0119145
0.2226 	0.00926274
0.2233 	0.00661098
0.224 	0.00395922
0.2247 	0.00130746
0.2254 	0.000318325
0.2261 	0.000269502
0.2268 	0.000220673
0.2275 	0.000171844
0.2282 	0.000123014
0.2289 	7.41841e-05
0.2296 	2.53544e-05
0.2303 	8.6609e-07
0.231 	7.35742e-07
0.2317 	6.05382e-07
0.2324 	4.75014e-07
0.2331 	3.44646e-07
0.2338 	2.14278e-07
0.2345 	8.39103e-08
0.2352 	2.65214e-10
0.2359 	2.27922e-10
0.2366 	1.90625e-10
0.2373 	1.53325e-10
0.238 	1.16024e-10
0.2387 	7.8723e-11
0.2394 	4.14221e-11
0.2401 	1.22454e-11
0.2408 	1.21934e-11
0.2415 	1.21408e-11
0.2422 	1.20874e-11
0.2429 	1.2034e-11
0.2436 	1.19806e-11
0.2443 	1.19272e-11
0.245 	1.18535e-11
0.2457 	1.13701e-11
0.2464 	1.08748e-11
0.2471 	1.03797e-11
0.2478 	9.88462e-12
0.2485 	9.38952e-12
0.2492 	8.89442e-12
0.2499 	8.39932e-12
0.2506 	7.85358e-12
0.2513 	7.32778e-12
0.252 	6.80307e-12
0.2527 	6.27837e-12
0.2534 	5.75367e-12
0.2541 	5.22896e-12
0.2548 	4.70426e-12
0.2555 	4.33225e-12
0.2562 	4.02433e-12
0.2569 	3.71761e-12
0.2576 	3.41098e-12
0.2583 	3.10436e-12
0.259 	2.79773e-12
0.2597 	2.49111e-12
0.2604 	2.26797e-12
0.2611 	2.10197e-12
0.2618 	1.93676e-12
0.2625 	1.77175e-12
0.2632 	1.60675e-12
0.2639 	1.44175e-12
0.2646 	1.27675e-12
0.2653 	1.14286e-12
0.266 	1.04875e-12
0.2667 	9.55071e-13
0.2674 	8.6164e-13
0.2681 	7.68208e-13
0.2688 	6.74776e-13
0.2695 	5.81344e-13
0.2702 	5.01803e-13
0.2709 	4.55344e-13
0.2716 	4.09076e-13
0.2723 	3.63e-13
0.273 	3.16923e-13
0.2737 	2.70847e-13
0.2744 	2.24771e-13
0.2751 	1.83316e-13
0.2758 	1.65069e-13
0.2765 	1.46882e-13
0.2772 	1.28803e-13
0.2779 	1.10725e-13
0.2786 	9.2646e-14
0.2793 	7.45675e-14
0.28 	5.72069e-14
0.2807 	5.10263e-14
0.2814 	4.51561e-14
0.2821 	3.93337e-14
0.2828 	3.35114e-14
0.2835 	2.76891e-14
0.2842 	2.18667e-14
0.2849 	1.60444e-14
0.2856 	1.39678e-14
0.2863 	1.23158e-14
0.287 	1.06811e-14
0.2877 	9.04635e-15
0.2884 	7.41166e-15
0.2891 	5.77696e-15
0.2898 	4.14226e-15
0.2905 	3.43691e-15
0.2912 	3.02333e-15
0.2919 	2.6143e-15
0.2926 	2.20562e-15
0.2933 	1.79694e-15
0.294 	1.38826e-15
0.2947 	9.79582e-16
0.2954 	7.6795e-16
0.2961 	6.75223e-16
0.2968 	5.83372e-16
0.2975 	4.9176e-16
0.2982 	4.00149e-16
0.2989 	3.08537e-16
0.2996 	2.16925e-16
0.3003 	1.60411e-16
0.301 	1.4114e-16
0.3017 	1.22017e-16
0.3024 	1.02976e-16
0.3031 	8.39357e-17
0.3038 	6.48952e-17
0.3045 	4.58547e-17
0.3052 	3.20571e-17
0.3059 	2.82125e-17
0.3066 	2.4391e-17
0.3073 	2.05924e-17
0.308 	1.67938e-17
0.3087 	1.29952e-17
0.3094 	9.19663e-18
0.3101 	6.02574e-18
0.3108 	5.29817e-18
0.3115 	4.57374e-18
0.3122 	3.85495e-18
0.3129 	3.13616e-18
0.3136 	2.41737e-18
0.3143 	1.69858e-18
0.315 	1.02581e-18
0.3157 	8.94046e-19
0.3164 	7.7014e-19
0.3171 	6.47428e-19
0.3178 	5.24716e-19
0.3185 	4.02004e-19
0.3192 	2.79292e-19
0.3199 	1.5658e-19
0.3206 	1.30571e-19
0.3213 	1.12293e-19
0.322 	9.42249e-20
0.3227 	7.61563e-20
0.3234 	5.80877e-20
0.3241 	4.00192e-20
0.3248 	2.19506e-20
0.3255 	1.63102e-20
0.3262 	1.40207e-20
0.3269 	1.17569e-20
0.3276 	9.49518e-21
0.3283 	7.23343e-21
0.329 	4.97167e-21
0.3297 	2.70991e-21
0.3304 	1.75568e-21
0.3311 	1.50976e-21
0.3318 	1.26611e-21
0.3325 	1.02309e-21
0.3332 	7.80066e-22
0.3339 	5.37041e-22
0.3346 	2.94016e-22
0.3353 	1.63116e-22
0.336 	1.40334e-22
0.3367 	1.17717e-22
0.3374 	9.51912e-23
0.3381 	7.26658e-23
0.3388 	5.01404e-23
0.3395 	2.7615e-23
0.3402 	1.27564e-23
0.3409 	1.09789e-23
0.3416 	9.21097e-24
0.3423 	7.45262e-24
0.343 	5.69426e-24
0.3437 	3.93591e-24
0.3444 	2.17756e-24
0.3451 	7.98477e-25
0.3458 	6.87551e-25
0.3465 	5.77031e-25
0.3472 	4.67242e-25
0.3479 	3.57454e-25
0.3486 	2.47666e-25
0.3493 	1.37878e-25
0.35 	3.80162e-26
0.3507 	3.24167e-26
0.3514 	2.72289e-26
0.3521 	2.20807e-26
0.3528 	1.69325e-26
0.3535 	1.17842e-26
0.3542 	6.636e-27
0.3549 	1.48777e-27
0.3556 	1.07678e-27
0.3563 	9.05799e-28
0.357 	7.36239e-28
0.3577 	5.6668e-28
0.3584 	3.97121e-28
0.3591 	2.27562e-28
0.3598 	5.80023e-29
0.3605 	2.32009e-29
0.3612 	1.95599e-29
0.3619 	1.59465e-29
0.3626 	1.23352e-29
0.3633 	8.7239e-30
0.364 	5.11259e-30
0.3647 	1.50128e-30
0.3654 	2.87435e-31
0.3661 	2.43027e-31
0.3668 	1.98869e-31
0.3675 	1.5478e-31
0.3682 	1.10691e-31
0.3689 	6.6602e-32
0.3696 	2.2513e-32
0.3703 	1.72143e-33
0.371 	1.46035e-33
0.3717 	1.20029e-33
0.3724 	9.40815e-34
0.3731 	6.81335e-34
0.3738 	4.21855e-34
0.3745 	1.62376e-34
0.3752 	3.98791e-36
0.3759 	3.39529e-36
0.3766 	2.80416e-36
0.3773 	2.21453e-36
0.378 	1.62491e-36
0.3787 	1.03528e-36
0.3794 	4.45649e-37
0.3801 	2.76911e-39
0.3808 	2.36623e-39
0.3815 	1.96391e-39
0.3822 	1.5626e-39
0.3829 	1.16128e-39
0.3836 	7.5997e-40
0.3843 	3.58656e-40
0.385 	4.61945e-43
0.3857 	3.92897e-43
0.3864 	3.27671e-43
0.3871 	2.62593e-43
0.3878 	1.97515e-43
0.3885 	1.32437e-43
0.3892 	6.73593e-44
0.3899 	2.28139e-45
0.3906 	4.77776e-47
0.3913 	4.00232e-47
0.392 	3.22918e-47
0.3927 	2.45604e-47
0.3934 	1.6829e-47
0.3941 	9.09764e-48
0.3948 	1.36624e-48
0.3955 	5.73895e-51
0.3962 	4.82807e-51
0.3969 	3.92008e-51
0.3976 	3.01231e-51
0.3983 	2.10454e-51
0.399 	1.19677e-51
0.3997 	2.88995e-52
0.4004 	6.67262e-55
0.4011 	5.63675e-55
0.4018 	4.60374e-55
0.4025 	3.57151e-55
0.4032 	2.53928e-55
0.4039 	1.50705e-55
0.4046 	4.74822e-56
0.4053 	7.44053e-59
0.406 	6.31028e-59
0.4067 	5.1826e-59
0.4074 	4.05635e-59
0.4081 	2.9301e-59
0.4088 	1.80385e-59
0.4095 	6.77599e-60
0.4102 	7.96821e-63
0.4109 	6.78327e-63
0.4116 	5.60045e-63
0.4123 	4.41974e-63
0.413 	3.23904e-63
0.4137 	2.05833e-63
0.4144 	8.77618e-64
0.4151 	8.24863e-67
0.4158 	7.04727e-67
0.4165 	5.84746e-67
0.4172 	4.65042e-67
0.4179 	3.45339e-67
0.4186 	2.25636e-67
0.4193 	1.05933e-67
0.42 	8.39276e-71
0.4207 	7.1305e-71
0.4214 	5.9447e-71
0.4221 	4.76203e-71
0.4228 	3.57936e-71
0.4235 	2.3967e-71
0.4242 	1.21403e-71
0.4249 	3.13582e-73
0.4256 	4.19499e-75
0.4263 	1.27897e-75
0.427 	1.35551e-76
0.4277 	-1.00787e-75
0.4284 	-2.15129e-75
0.4291 	-3.29471e-75
0.4298 	-4.43813e-75
0.4305 	-5.7765e-75
0.4312 	-7.69958e-75
0.4319 	-7.83901e-75
0.4326 	-7.84125e-75
0.4333 	-7.84348e-75
0.434 	-7.84571e-75
0.4347 	-7.84795e-75
0.4354 	-8.17504e-75
0.4361 	-8.89652e-75
0.4368 	-9.05215e-75
0.4375 	-9.05346e-75
0.4382 	-9.05477e-75
0.4389 	-9.05608e-75
0.4396 	-9.05738e-75
0.4403 	-8.94159e-75
0.441 	-8.56402e-75
0.4417 	-8.42895e-75
0.4424 	-8.42859e-75
0.4431 	-8.42824e-75
0.4438 	-8.42788e-75
0.4445 	-8.42753e-75
0.4452 	-8.27236e-75
0.4459 	-7.32971e-75
0.4466 	-6.85766e-75
0.4473 	-6.85618e-75
0.448 	-6.85471e-75
0.4487 	-6.85324e-75
0.4494 	-6.85176e-75
0.4501 	-6.82933e-75
0.4508 	-5.78456e-75
0.4515 	-5.11228e-75
0.4522 	-5.11047e-75
0.4529 	-5.10867e-75
0.4536 	-5.10686e-75
0.4543 	-5.10506e-75
0.455 	-5.48127e-75
0.4557 	-4.30975e-75
0.4564 	-3.59787e-75
0.4571 	-3.59623e-75
0.4578 	-3.59459e-75
0.4585 	-3.59294e-75
0.4592 	-3.5913e-75
0.4599 	-3.58966e-75
0.4606 	-3.08006e-75
0.4613 	-2.43401e-75
0.462 	-2.43272e-75
0.4627 	-2.43143e-75
0.4634 	-2.43013e-75
0.4641 	-2.42884e-75
0.4648 	-2.42754e-75
0.4655 	-2.13339e-75
0.4662 	-1.63395e-75
0.4669 	-1.5974e-75
0.4676 	-1.59645e-75
0.4683 	-1.59551e-75
0.469 	-1.59457e-75
0.4697 	-1.59363e-75
0.4704 	-1.44042e-75
0.4711 	-1.09646e-75
0.4718 	-1.02224e-75
0.4725 	-1.02158e-75
0.4732 	-1.02093e-75
0.4739 	-1.02027e-75
0.4746 	-1.01962e-75
0.4753 	-9.50208e-76
0.476 	-7.20287e-76
0.4767 	-6.37889e-76
0.4774 	-6.37449e-76
0.4781 	-6.37008e-76
0.4788 	-6.36568e-76
0.4795 	-6.36127e-76
0.4802 	-6.12417e-76
0.4809 	-4.62726e-76
0.4816 	-3.87735e-76
0.4823 	-3.87446e-76
0.483 	-3.87156e-76
0.4837 	-3.86866e-76
0.4844 	-3.86577e-76
0.4851 	-3.85159e-76
0.4858 	-2.90321e-76
0.4865 	-2.29287e-76
0.4872 	-2.291e-76
0.4879 	-2.28913e-76
0.4886 	-2.28726e-76
0.4893 	-2.28539e-76
0.49 	-2.46387e-76
0.4907 	-1.77692e-76
0.4914 	-1.3183e-76
0.4921 	-1.31711e-76
0.4928 	-1.31593e-76
0.4935 	-1.31474e-76
0.4942 	-1.31355e-76
0.4949 	-1.31237e-76
0.4956 	-1.0602e-76
0.4963 	-7.37142e-77
0.497 	-7.36402e-77
0.4977 	-7.35662e-77
0.4984 	-7.34922e-77
0.4991 	-7.34182e-77
0.4998 	-7.33442e-77
0.5005 	-6.16548e-77
0.5012 	-4.15543e-77
0.5019 	-4.00766e-77
0.5026 	-4.00313e-77
0.5033 	-3.99861e-77
0.504 	-3.99408e-77
0.5047 	-3.98956e-77
0.5054 	-3.49576e-77
0.5061 	-2.36908e-77
0.5068 	-2.12553e-77
0.5075 	-2.12282e-77
0.5082 	-2.12011e-77
0.5089 	-2.1174e-77
0.5096 	-2.11469e-77
0.5103 	-1.9336e-77
0.511 	-1.32006e-77
0.5117 	-1.09991e-77
0.5124 	-1.09833e-77
0.5131 	-1.09674e-77
0.5138 	-1.09515e-77
0.5145 	-1.09357e-77
0.5152 	-1.04408e-77
0.5159 	-7.18941e-78
0.5166 	-5.55916e-78
0.5173 	-5.55007e-78
0.518 	-5.54098e-78
0.5187 	-5.53189e-78
0.5194 	-5.52279e-78
0.5201 	-5.50696e-78
0.5208 	-3.82775e-78
0.5215 	-2.74645e-78
0.5222 	-2.74135e-78
0.5229 	-2.73626e-78
0.5236 	-2.73116e-78
0.5243 	-2.72607e-78
0.525 	-2.94786e-78
0.5257 	-1.99256e-78
0.5264 	-1.32714e-78
0.5271 	-1.32435e-78
0.5278 	-1.32156e-78
0.5285 	-1.31877e-78
0.5292 	-1.31598e-78
0.5299 	-1.31319e-78
0.5306 	-1.01428e-78
0.5313 	-6.27561e-79
0.532 	-6.26069e-79
0.5327 	-6.24576e-79
0.5334 	-6.23084e-79
0.5341 	-6.21591e-79
0.5348 	-6.20098e-79
0.5355 	-5.04949e-79
0.5362 	-3.04755e-79
0.5369 	-2.8973e-79
0.5376 	-2.8895e-79
0.5383 	-2.88169e-79
0.539 	-2.87389e-79
0.5397 	-2.86608e-79
0.5404 	-2.45887e-79
0.5411 	-1.51778e-79
0.5418 	-1.31299e-79
0.5425 	-1.309e-79
0.5432 	-1.30501e-79
0.5439 	-1.30102e-79
0.5446 	-1.29703e-79
0.5453 	-1.17133e-79
0.546 	-7.38646e-80
0.5467 	-5.82835e-80
0.5474 	-5.80843e-80
0.5481 	-5.78851e-80
0.5488 	-5.76859e-80
0.5495 	-5.74867e-80
0.5502 	-5.45932e-80
0.5509 	-3.51293e-80
0.5516 	-2.53488e-80
0.5523 	-2.52516e-80
0.553 	-2.51543e-80
0.5537 	-2.50571e-80
0.5544 	-2.49598e-80
0.5551 	-2.49091e-80
0.5558 	-1.63294e-80
0.5565 	-1.08042e-80
0.5572 	-1.07578e-80
0.5579 	-1.07114e-80
0.5586 	-1.0665e-80
0.5593 	-1.06186e-80
0.56 	-1.14945e-80
0.5607 	-7.42007e-81
0.5614 	-4.51381e-81
0.5621 	-4.49217e-81
0.5628 	-4.47053e-81
0.5635 	-4.44889e-81
0.5642 	-4.42725e-81
0.5649 	-4.41484e-81
0.5656 	-3.29657e-81
0.5663 	-1.84878e-81
0.567 	-1.83891e-81
0.5677 	-1.82905e-81
0.5684 	-1.81918e-81
0.5691 	-1.80931e-81
0.5698 	-1.79944e-81
0.5705 	-1.43223e-81
0.5712 	-7.88184e-82
0.5719 	-7.38094e-82
0.5726 	-7.33694e-82
0.5733 	-7.29294e-82
0.574 	-7.24894e-82
0.5747 	-7.20494e-82
0.5754 	-6.08615e-82
0.5761 	-3.47894e-82
0.5768 	-2.90518e-82
0.5775 	-2.886e-82
0.5782 	-2.86682e-82
0.5789 	-2.84764e-82
0.5796 	-2.82846e-82
0.5803 	-2.53006e-82
0.581 	-1.49606e-82
0.5817 	-1.12152e-82
0.5824 	-1.11335e-82
0.5831 	-1.10517e-82
0.5838 	-1.09699e-82
0.5845 	-1.08882e-82
0.5852 	-1.0291e-82
0.5859 	-6.27298e-83
0.5866 	-4.24694e-83
0.5873 	-4.21286e-83
0.588 	-4.17878e-83
0.5887 	-4.1447e-83
0.5894 	-4.11063e-83
0.5901 	-4.10338e-83
0.5908 	-2.56633e-83
0.5915 	-1.57775e-83
0.5922 	-1.56386e-83
0.5929 	-1.54997e-83
0.5936 	-1.53608e-83
0.5943 	-1.52219e-83
0.595 	-1.6449e-83
0.5957 	-1.025e-83
0.5964 	-5.75122e-84
0.5971 	-5.69586e-84
0.5978 	-5.64049e-84
0.5985 	-5.58513e-84
0.5992 	-5.52977e-84
0.5999 	-5.50512e-84
0.6006 	-3.99896e-84
0.6013 	-2.05737e-84
0.602 	-2.03578e-84
0.6027 	-2.0142e-84
0.6034 	-1.99261e-84
0.6041 	-1.97103e-84
0.6048 	-1.94944e-84
0.6055 	-1.52473e-84
0.6062 	-7.75335e-85
0.6069 	-7.14163e-85
0.6076 	-7.0593e-85
0.6083 	-6.97698e-85
0.609 	-6.89466e-85
0.6097 	-6.81233e-85
0.6104 	-5.68422e-85
0.6111 	-3.04847e-85
0.6118 	-2.45953e-85
0.6125 	-2.42881e-85
0.6132 	-2.39809e-85
0.6139 	-2.36736e-85
0.6146 	-2.33664e-85
0.6153 	-2.07294e-85
0.616 	-1.16372e-85
0.6167 	-8.3178e-86
0.6174 	-8.20559e-86
0.6181 	-8.09338e-86
0.6188 	-7.98117e-86
0.6195 	-7.86896e-86
0.6202 	-7.39856e-86
0.6209 	-4.32165e-86
0.6216 	-2.76313e-86
0.6223 	-2.723e-86
0.623 	-2.68287e-86
0.6237 	-2.64274e-86
0.6244 	-2.60262e-86
0.6251 	-2.59203e-86
0.6258 	-1.56385e-86
0.6265 	-9.01954e-87
0.6272 	-8.87898e-87
0.6279 	-8.73842e-87
0.6286 	-8.59786e-87
0.6293 	-8.4573e-87
0.63 	-9.09422e-87
0.6307 	-5.52185e-87
0.6314 	-2.89427e-87
0.6321 	-2.84602e-87
0.6328 	-2.79777e-87
0.6335 	-2.74952e-87
0.6342 	-2.70127e-87
0.6349 	-2.67584e-87
0.6356 	-1.90481e-87
0.6363 	-9.13422e-88
0.637 	-8.97181e-88
0.6377 	-8.8094e-88
0.6384 	-8.64699e-88
0.6391 	-8.48459e-88
0.6398 	-8.32218e-88
0.6405 	-6.42666e-88
0.6412 	-3.07242e-88
0.6419 	-2.78303e-88
0.6426 	-2.72939e-88
0.6433 	-2.67575e-88
0.644 	-2.62211e-88
0.6447 	-2.56847e-88
0.6454 	-2.12297e-88
0.6461 	-1.08587e-88
0.6468 	-8.49966e-89
0.6475 	-8.32571e-89
0.6482 	-8.15177e-89
0.6489 	-7.97782e-89
0.6496 	-7.80387e-89
0.6503 	-6.87335e-89
0.651 	-3.71943e-89
0.6517 	-2.55739e-89
0.6524 	-2.50196e-89
0.6531 	-2.44653e-89
0.6538 	-2.3911e-89
0.6545 	-2.33567e-89
0.6552 	-2.18313e-89
0.6559 	-1.23919e-89
0.6566 	-7.58536e-90
0.6573 	-7.41164e-90
0.658 	-7.23793e-90
0.6587 	-7.06421e-90
0.6594 	-6.89049e-90
0.6601 	-6.82845e-90
0.6608 	-4.02683e-90
0.6615 	-2.21921e-90
0.6622 	-2.16562e-90
0.6629 	-2.11204e-90
0.6636 	-2.05846e-90
0.6643 	-2.00488e-90
0.665 	-2.1384e-90
0.6657 	-1.27908e-90
0.6664 	-6.40743e-91
0.6671 	-6.24464e-91
0.6678 	-6.08186e-91
0.6685 	-5.91908e-91
0.6692 	-5.75629e-91
0.6699 	-5.65448e-91
0.6706 	-3.97819e-91
0.6713 	-1.82632e-91
0.672 	-1.77758e-91
0.6727 	-1.72884e-91
0.6734 	-1.6801e-91
0.6741 	-1.63136e-91
0.6748 	-1.58262e-91
0.6755 	-1.21302e-91
0.6762 	-5.59551e-92
0.6769 	-4.99516e-92
0.6776 	-4.85128e-92
0.6783 	-4.70741e-92
0.679 	-4.56354e-92
0.6797 	-4.41967e-92
0.6804 	-3.62881e-92
0.6811 	-1.80805e-92
0.6818 	-1.38499e-92
0.6825 	-1.34313e-92
0.6832 	-1.30126e-92
0.6839 	-1.2594e-92
0.6846 	-1.21754e-92
0.6853 	-1.06517e-92
0.686 	-5.64843e-93
0.6867 	-3.78441e-93
0.6874 	-3.66442e-93
0.6881 	-3.54443e-93
0.6888 	-3.42443e-93
0.6895 	-3.30444e-93
0.6902 	-3.06571e-93
0.6909 	-1.71113e-93
0.6916 	-1.01694e-93
0.6923 	-9.83113e-94
0.693 	-9.49291e-94
0.6937 	-9.15468e-94
0.6944 	-8.81646e-94
0.6951 	-8.66238e-94
0.6958 	-5.76542e-94
0.6965 	-3.90243e-94
0.6972 	-3.8289e-94
0.6979 	-3.75537e-94
0.6986 	-3.68184e-94
0.6993 	-3.60831e-94
0.7 	-3.8698e-94
