0 	1
0.0007 	1
0.0014 	1
0.0021 	1
0.0028 	1
0.0035 	1
0.0042 	1
0.0049 	1
0.0056 	1
0.0063 	1
0.007 	1
0.0077 	1
0.0084 	1
0.0091 	1
0.0098 	1
0.0105 	1
0.0112 	1
0.0119 	1
0.0126 	1
0.0133 	1
0.014 	1
0.0147 	1
0.0154 	1
0.0161 	1
0.0168 	1
0.0175 	1
0.0182 	1
0.0189 	1
0.0196 	1
0.0203 	1
0.021 	1
0.0217 	1
0.0224 	1
0.0231 	1
0.0238 	1
0.0245 	1
0.0252 	1
0.0259 	1
0.0266 	1
0.0273 	1
0.028 	1
0.0287 	1
0.0294 	1
0.0301 	1
0.0308 	1
0.0315 	1
0.0322 	1
0.0329 	1
0.0336 	1
0.0343 	1
0.035 	1
0.0357 	1
0.0364 	1
0.0371 	1
0.0378 	1
0.0385 	1
0.0392 	1
0.0399 	1
0.0406 	1
0.0413 	1
0.042 	1
0.0427 	1
0.0434 	1
0.0441 	1
0.0448 	1
0.0455 	1
0.0462 	1
0.0469 	1
0.0476 	1
0.0483 	1
0.049 	1
0.0497 	1
0.0504 	1
0.0511 	1
0.0518 	1
0.0525 	1
0.0532 	1
0.0539 	1
0.0546 	1
0.0553 	1
0.056 	1
0.0567 	1
0.0574 	1
0.0581 	1
0.0588 	1
0.0595 	1
0.0602 	1
0.0609 	1
0.0616 	1
0.0623 	1
0.063 	1
0.0637 	1
0.0644 	1
0.0651 	1
0.0658 	1
0.0665 	1
0.0672 	1
0.0679 	1
0.0686 	1
0.0693 	1
0.07 	1
0.0707 	1
0.0714 	1
0.0721 	1
0.0728 	1
0.0735 	1
0.0742 	1
0.0749 	1
0.0756 	1
0.0763 	1
0.077 	1
0.0777 	1
0.0784 	1
0.0791 	1
0.0798 	1
0.0805 	1
0.0812 	1
0.0819 	1
0.0826 	1
0.0833 	1
0.084 	1
0.0847 	1
0.0854 	1
0.0861 	1
0.0868 	1
0.0875 	1
0.0882 	1
0.0889 	1
0.0896 	1
0.0903 	1
0.091 	1
0.0917 	1
0.0924 	1
0.0931 	1
0.0938 	1
0.0945 	1
0.0952 	1
0.0959 	1
0.0966 	1
0.0973 	1
0.098 	1
0.0987 	1
0.0994 	1
0.1001 	1
0.1008 	1
0.1015 	1
0.1022 	1
0.1029 	1
0.1036 	1
0.1043 	1
0.105 	1
0.1057 	1
0.1064 	1
0.1071 	1
0.1078 	1
0.1085 	1
0.1092 	1
0.1099 	1
0.1106 	1
0.1113 	1
0.112 	1
0.1127 	1
0.1134 	1
0.1141 	1
0.1148 	1
0.1155 	1
0.1162 	1
0.1169 	1
0.1176 	1
0.1183 	1
0.119 	1
0.1197 	1
0.1204 	1
0.1211 	1
0.1218 	1
0.1225 	1
0.1232 	1
0.1239 	1
0.1246 	1
0.1253 	1
0.126 	1
0.1267 	1
0.1274 	1
0.1281 	1
0.1288 	1
0.1295 	1
0.1302 	1
0.1309 	1
0.1316 	1
0.1323 	1
0.133 	1
0.1337 	1
0.1344 	1
0.1351 	1
0.1358 	1
0.1365 	1
0.1372 	1
0.1379 	1
0.1386 	1
0.1393 	1
0.14 	1
0.1407 	1
0.1414 	1
0.1421 	1
0.1428 	1
0.1435 	1
0.1442 	1
0.1449 	1
0.1456 	1
0.1463 	1
0.147 	1
0.1477 	1
0.1484 	1
0.1491 	1
0.1498 	1
0.1505 	1
0.1512 	1
0.1519 	1
0.1526 	1
0.1533 	1
0.154 	1
0.1547 	1
0.1554 	1
0.1561 	1
0.1568 	1
0.1575 	1
0.1582 	1
0.1589 	1
0.1596 	1
0.1603 	1
0.161 	1
0.1617 	1
0.1624 	1
0.1631 	1
0.1638 	1
0.1645 	1
0.1652 	1
0.1659 	1
0.1666 	1
0.1673 	1
0.168 	1
0.1687 	1
0.1694 	1
0.1701 	1
0.1708 	1
0.1715 	1
0.1722 	1
0.1729 	1
0.1736 	1
0.1743 	1
0.175 	1
0.1757 	1
0.1764 	1
0.1771 	1
0.1778 	1
0.1785 	1
0.1792 	1
0.1799 	1
0.1806 	1
0.1813 	1
0.182 	1
0.1827 	1
0.1834 	1
0.1841 	1
0.1848 	1
0.1855 	1
0.1862 	1
0.1869 	1
0.1876 	1
0.1883 	1
0.189 	1
0.1897 	1
0.1904 	1
0.1911 	1
0.1918 	1
0.1925 	1
0.1932 	1
0.1939 	1
0.1946 	1
0.1953 	1
0.196 	1
0.1967 	1
0.1974 	1
0.1981 	1
0.1988 	1
0.1995 	1
0.2002 	1
0.2009 	1
0.2016 	1
0.2023 	1
0.203 	1
0.2037 	1
0.2044 	1
0.2051 	1
0.2058 	1
0.2065 	1
0.2072 	1
0.2079 	1
0.2086 	1
0.2093 	1
0.21 	1
0.2107 	1
0.2114 	1
0.2121 	1
0.2128 	1
0.2135 	1
0.2142 	1
0.2149 	1
0.2156 	1
0.2163 	1
0.217 	1
0.2177 	1
0.2184 	1
0.2191 	1
0.2198 	1
0.2205 	0.999998
0.2212 	0.999995
0.2219 	0.999993
0.2226 	0.99999
0.2233 	0.999987
0.224 	0.999984
0.2247 	0.999982
0.2254 	0.999734
0.2261 	0.999304
0.2268 	0.998873
0.2275 	0.998442
0.2282 	0.998012
0.2289 	0.997581
0.2296 	0.99715
0.2303 	0.992497
0.231 	0.982209
0.2317 	0.971922
0.2324 	0.961635
0.2331 	0.951347
0.2338 	0.94106
0.2345 	0.930772
0.2352 	0.909118
0.2359 	0.85904
0.2366 	0.808962
0.2373 	0.758883
0.238 	0.708805
0.2387 	0.658727
0.2394 	0.608648
0.2401 	0.557314
0.2408 	0.498508
0.2415 	0.439702
0.2422 	0.380897
0.2429 	0.322091
0.2436 	0.263286
0.2443 	0.20448
0.245 	0.145679
0.2457 	0.126226
0.2464 	0.106776
0.2471 	0.0873255
0.2478 	0.0678752
0.2485 	0.0484249
0.2492 	0.0289746
0.2499 	0.00952436
0.2506 	0.00597542
0.2513 	0.00507327
0.252 	0.00417115
0.2527 	0.00326903
0.2534 	0.0023669
0.2541 	0.00146478
0.2548 	0.000562657
0.2555 	0.000276143
0.2562 	0.00023568
0.2569 	0.000195219
0.2576 	0.000154758
0.2583 	0.000114297
0.259 	7.38366e-05
0.2597 	3.33758e-05
0.2604 	1.48225e-05
0.2611 	1.26891e-05
0.2618 	1.05558e-05
0.2625 	8.42267e-06
0.2632 	6.28951e-06
0.2639 	4.15635e-06
0.2646 	2.0232e-06
0.2653 	7.58228e-07
0.266 	6.50067e-07
0.2667 	5.41924e-07
0.2674 	4.33792e-07
0.2681 	3.2566e-07
0.2688 	2.17528e-07
0.2695 	1.09396e-07
0.2702 	3.09113e-08
0.2709 	2.64842e-08
0.2716 	2.20582e-08
0.2723 	1.76331e-08
0.273 	1.32081e-08
0.2737 	8.78298e-09
0.2744 	4.35791e-09
0.2751 	5.54478e-10
0.2758 	4.755e-10
0.2765 	3.96539e-10
0.2772 	3.17612e-10
0.2779 	2.38684e-10
0.2786 	1.59756e-10
0.2793 	8.08284e-11
0.28 	1.91507e-12
0.2807 	1.64705e-12
0.2814 	1.37911e-12
0.2821 	1.11134e-12
0.2828 	8.43559e-13
0.2835 	5.7578e-13
0.2842 	3.08002e-13
0.2849 	4.02243e-14
0.2856 	1.77751e-15
0.2863 	1.49476e-15
0.287 	1.21211e-15
0.2877 	9.29468e-16
0.2884 	6.46821e-16
0.2891 	3.64174e-16
0.2898 	8.15271e-17
0.2905 	7.41627e-19
0.2912 	6.26297e-19
0.2919 	5.10992e-19
0.2926 	3.9569e-19
0.2933 	2.80388e-19
0.294 	1.65085e-19
0.2947 	4.97826e-20
0.2954 	3.58103e-22
0.2961 	3.03633e-22
0.2968 	2.49143e-22
0.2975 	1.94646e-22
0.2982 	1.4015e-22
0.2989 	8.56541e-23
0.2996 	3.1158e-23
0.3003 	2.61613e-26
0.301 	2.22686e-26
0.3017 	1.83731e-26
0.3024 	1.4476e-26
0.3031 	1.05789e-26
0.3038 	6.6818e-27
0.3045 	2.78472e-27
0.3052 	1.77666e-30
0.3059 	1.51793e-30
0.3066 	1.25897e-30
0.3073 	9.99782e-31
0.308 	7.40597e-31
0.3087 	4.81412e-31
0.3094 	2.22227e-31
0.3101 	1.17828e-34
0.3108 	1.01027e-34
0.3115 	8.42108e-35
0.3122 	6.73695e-35
0.3129 	5.05282e-35
0.3136 	3.36869e-35
0.3143 	1.68455e-35
0.315 	7.59604e-39
0.3157 	6.53484e-39
0.3164 	5.47313e-39
0.3171 	4.40896e-39
0.3178 	3.34479e-39
0.3185 	2.28062e-39
0.3192 	1.21645e-39
0.3199 	1.52273e-40
0.3206 	4.08763e-43
0.3213 	3.43914e-43
0.322 	2.78852e-43
0.3227 	2.13789e-43
0.3234 	1.48727e-43
0.3241 	8.36652e-44
0.3248 	1.86031e-44
0.3255 	2.45801e-47
0.3262 	2.07696e-47
0.3269 	1.69446e-47
0.3276 	1.31186e-47
0.3283 	9.29255e-48
0.329 	5.46651e-48
0.3297 	1.64047e-48
0.3304 	1.41233e-51
0.3311 	1.19821e-51
0.3318 	9.83327e-52
0.3325 	7.68232e-52
0.3332 	5.53137e-52
0.3339 	3.38043e-52
0.3346 	1.22948e-52
0.3353 	7.71438e-56
0.336 	6.57006e-56
0.3367 	5.42203e-56
0.3374 	4.27194e-56
0.3381 	3.12185e-56
0.3388 	1.97176e-56
0.3395 	8.21666e-57
0.3402 	3.99244e-60
0.3409 	3.4127e-60
0.3416 	2.83137e-60
0.3423 	2.24846e-60
0.343 	1.66554e-60
0.3437 	1.08263e-60
0.3444 	4.99716e-61
0.3451 	1.95537e-64
0.3458 	1.67728e-64
0.3465 	1.39861e-64
0.3472 	1.11889e-64
0.3479 	8.39179e-65
0.3486 	5.59463e-65
0.3493 	2.79746e-65
0.35 	9.06845e-69
0.3507 	7.80455e-69
0.3514 	6.5392e-69
0.3521 	5.26771e-69
0.3528 	3.99622e-69
0.3535 	2.72473e-69
0.3542 	1.45324e-69
0.3549 	1.81755e-70
0.3556 	3.44559e-73
0.3563 	2.90018e-73
0.357 	2.3515e-73
0.3577 	1.80283e-73
0.3584 	1.25415e-73
0.3591 	7.05478e-74
0.3598 	1.56804e-74
0.3605 	1.44709e-77
0.3612 	1.22323e-77
0.3619 	9.97991e-78
0.3626 	7.72641e-78
0.3633 	5.47291e-78
0.364 	3.21941e-78
0.3647 	9.65915e-79
0.3654 	5.79917e-82
0.3661 	4.9216e-82
0.3668 	4.0393e-82
0.3675 	3.15572e-82
0.3682 	2.27213e-82
0.3689 	1.38854e-82
0.3696 	5.04947e-83
0.3703 	2.22355e-86
0.371 	1.89423e-86
0.3717 	1.56342e-86
0.3724 	1.23179e-86
0.3731 	9.00154e-87
0.3738 	5.68522e-87
0.3745 	2.3689e-87
0.3752 	8.17802e-91
0.3759 	6.99198e-91
0.3766 	5.80172e-91
0.3773 	4.60726e-91
0.378 	3.41279e-91
0.3787 	2.21832e-91
0.3794 	1.02385e-91
0.3801 	2.89165e-95
0.3808 	2.48082e-95
0.3815 	2.06893e-95
0.3822 	1.65515e-95
0.3829 	1.24136e-95
0.3836 	8.27575e-96
0.3843 	4.13789e-96
0.385 	9.83941e-100
0.3857 	8.46912e-100
0.3864 	7.09695e-100
0.3871 	5.71699e-100
0.3878 	4.33702e-100
0.3885 	2.95706e-100
0.3892 	1.5771e-100
0.3899 	1.97134e-101
0.3906 	2.78433e-104
0.3913 	2.34388e-104
0.392 	1.90044e-104
0.3927 	1.457e-104
0.3934 	1.01356e-104
0.3941 	5.70128e-105
0.3948 	1.26691e-105
0.3955 	8.82099e-109
0.3962 	7.45716e-109
0.3969 	6.08405e-109
0.3976 	4.71022e-109
0.3983 	3.3364e-109
0.399 	1.96258e-109
0.3997 	5.88751e-110
0.4004 	2.69428e-113
0.4011 	2.28672e-113
0.4018 	1.87681e-113
0.4025 	1.46625e-113
0.4032 	1.0557e-113
0.4039 	6.45143e-114
0.4046 	2.34589e-114
0.4053 	7.93509e-118
0.406 	6.76018e-118
0.4067 	5.57969e-118
0.4074 	4.39611e-118
0.4081 	3.21253e-118
0.4088 	2.02895e-118
0.4095 	8.45367e-119
0.4102 	2.25366e-122
0.4109 	1.92689e-122
0.4116 	1.59891e-122
0.4123 	1.26972e-122
0.413 	9.40526e-123
0.4137 	6.11336e-123
0.4144 	2.82147e-123
0.4151 	6.17279e-127
0.4158 	5.29594e-127
0.4165 	4.41677e-127
0.4172 	3.5334e-127
0.4179 	2.65004e-127
0.4186 	1.76668e-127
0.4193 	8.83313e-128
0.42 	1.63146e-131
0.4207 	1.40429e-131
0.4214 	1.17679e-131
0.4221 	9.47968e-132
0.4228 	7.19144e-132
0.4235 	4.90321e-132
0.4242 	2.61498e-132
0.4249 	3.26741e-133
0.4256 	3.59531e-136
0.4263 	3.02664e-136
0.427 	2.45403e-136
0.4277 	1.88141e-136
0.4284 	1.30879e-136
0.4291 	7.36179e-137
0.4298 	1.63562e-137
0.4305 	8.84702e-141
0.4312 	7.4838e-141
0.4319 	6.1004e-141
0.4326 	4.71545e-141
0.4333 	3.3305e-141
0.434 	1.94555e-141
0.4347 	5.60605e-142
0.4354 	-2.87034e-143
0.4361 	-2.18811e-143
0.4368 	-1.90512e-143
0.4375 	-1.73102e-143
0.4382 	-1.55691e-143
0.4389 	-1.3828e-143
0.4396 	-1.20869e-143
0.4403 	-1.00388e-143
0.441 	-7.58108e-144
0.4417 	-6.28171e-144
0.4424 	-5.62586e-144
0.4431 	-4.97001e-144
0.4438 	-4.31416e-144
0.4445 	-3.65832e-144
0.4452 	-2.9794e-144
0.4459 	-2.2427e-144
0.4466 	-1.7736e-144
0.4473 	-1.5721e-144
0.448 	-1.37059e-144
0.4487 	-1.16909e-144
0.4494 	-9.6758e-145
0.4501 	-7.67897e-145
0.4508 	-5.79059e-145
0.4515 	-4.38797e-145
0.4522 	-3.85973e-145
0.4529 	-3.33148e-145
0.4536 	-2.80324e-145
0.4543 	-2.27499e-145
0.455 	-1.74979e-145
0.4557 	-1.3231e-145
0.4564 	-9.64323e-146
0.4571 	-8.43542e-146
0.4578 	-7.22762e-146
0.4585 	-6.01981e-146
0.4592 	-4.81201e-146
0.4599 	-3.6042e-146
0.4606 	-2.70703e-146
0.4613 	-1.9044e-146
0.462 	-1.65939e-146
0.4627 	-1.41437e-146
0.4634 	-1.16936e-146
0.4641 	-9.24342e-147
0.4648 	-6.79328e-147
0.4655 	-5.00807e-147
0.4662 	-3.48851e-147
0.4669 	-2.96512e-147
0.4676 	-2.51836e-147
0.4683 	-2.0716e-147
0.469 	-1.62484e-147
0.4697 	-1.17808e-147
0.4704 	-8.44724e-148
0.4711 	-5.96332e-148
0.4718 	-4.84977e-148
0.4725 	-4.10995e-148
0.4732 	-3.37014e-148
0.4739 	-2.63032e-148
0.4746 	-1.8905e-148
0.4753 	-1.30827e-148
0.476 	-9.35953e-149
0.4767 	-7.30852e-149
0.4774 	-6.18649e-149
0.4781 	-5.06446e-149
0.4788 	-3.94243e-149
0.4795 	-2.82041e-149
0.4802 	-1.87188e-149
0.4809 	-1.35663e-149
0.4816 	-1.02053e-149
0.4823 	-8.63578e-150
0.483 	-7.06626e-150
0.4837 	-5.49674e-150
0.4844 	-3.92722e-150
0.4851 	-2.48753e-150
0.4858 	-1.82537e-150
0.4865 	-1.32695e-150
0.4872 	-1.12324e-150
0.4879 	-9.1954e-151
0.4886 	-7.15836e-151
0.4893 	-5.12132e-151
0.49 	-3.08876e-151
0.4907 	-2.29041e-151
0.4914 	-1.61359e-151
0.4921 	-1.36704e-151
0.4928 	-1.12048e-151
0.4935 	-8.73922e-152
0.4942 	-6.27365e-152
0.4949 	-3.80808e-152
0.4956 	-2.69101e-152
0.4963 	-1.84208e-152
0.497 	-1.56255e-152
0.4977 	-1.28301e-152
0.4984 	-1.00348e-152
0.4991 	-7.23944e-153
0.4998 	-4.4441e-153
0.5005 	-2.97142e-153
0.5012 	-2.02721e-153
0.5019 	-1.68303e-153
0.5026 	-1.38501e-153
0.5033 	-1.08698e-153
0.504 	-7.88961e-154
0.5047 	-4.90939e-154
0.5054 	-3.09387e-154
0.5061 	-2.15105e-154
0.5068 	-1.71345e-154
0.5075 	-1.41363e-154
0.5082 	-1.1138e-154
0.5089 	-8.13981e-155
0.5096 	-5.14159e-155
0.5103 	-3.04675e-155
0.511 	-2.15528e-155
0.5117 	-1.65335e-155
0.5124 	-1.36784e-155
0.5131 	-1.08233e-155
0.5138 	-7.96817e-156
0.5145 	-5.11305e-156
0.5152 	-2.84548e-156
0.5159 	-2.04509e-156
0.5166 	-1.51585e-156
0.5173 	-1.25778e-156
0.518 	-9.99714e-157
0.5187 	-7.41645e-157
0.5194 	-4.83575e-157
0.5201 	-2.52646e-157
0.5208 	-1.84246e-157
0.5215 	-1.32347e-157
0.5222 	-1.10152e-157
0.5229 	-8.79566e-158
0.5236 	-6.57614e-158
0.5243 	-4.35661e-158
0.525 	-2.14008e-158
0.5257 	-1.57984e-158
0.5264 	-1.10269e-158
0.5271 	-9.20645e-159
0.5278 	-7.38595e-159
0.5285 	-5.56545e-159
0.5292 	-3.74494e-159
0.5299 	-1.92444e-159
0.5306 	-1.2922e-159
0.5313 	-8.7847e-160
0.532 	-7.35766e-160
0.5327 	-5.93061e-160
0.5334 	-4.50357e-160
0.5341 	-3.07652e-160
0.5348 	-1.64948e-160
0.5355 	-1.01031e-160
0.5362 	-6.85914e-161
0.5369 	-5.63279e-161
0.5376 	-4.56162e-161
0.5383 	-3.49046e-161
0.539 	-2.4193e-161
0.5397 	-1.34814e-161
0.5404 	-7.56509e-162
0.5411 	-5.24169e-162
0.5418 	-4.13779e-162
0.5425 	-3.36648e-162
0.5432 	-2.59518e-162
0.5439 	-1.82387e-162
0.5446 	-1.05257e-162
0.5453 	-5.4343e-163
0.546 	-3.83511e-163
0.5467 	-2.92092e-163
0.5474 	-2.3873e-163
0.5481 	-1.85367e-163
0.5488 	-1.32005e-163
0.5495 	-7.8642e-164
0.5502 	-3.75095e-164
0.5509 	-2.69158e-164
0.5516 	-1.98426e-164
0.5523 	-1.62901e-164
0.553 	-1.27376e-164
0.5537 	-9.18508e-165
0.5544 	-5.63256e-165
0.5551 	-2.49162e-165
0.5558 	-1.81523e-165
0.5565 	-1.29901e-165
0.5572 	-1.07111e-165
0.5579 	-8.43197e-166
0.5586 	-6.15288e-166
0.5593 	-3.87379e-166
0.56 	-1.59697e-166
0.5607 	-1.17834e-166
0.5614 	-8.20617e-167
0.5621 	-6.79522e-167
0.5628 	-5.38426e-167
0.5635 	-3.97331e-167
0.5642 	-2.56235e-167
0.5649 	-1.1514e-167
0.5656 	-7.37369e-168
0.5663 	-5.0086e-168
0.567 	-4.1646e-168
0.5677 	-3.3206e-168
0.5684 	-2.4766e-168
0.5691 	-1.6326e-168
0.5698 	-7.88604e-169
0.5705 	-4.45475e-169
0.5712 	-3.02451e-169
0.5719 	-2.46879e-169
0.5726 	-1.98034e-169
0.5733 	-1.49189e-169
0.574 	-1.00344e-169
0.5747 	-5.14988e-170
0.5754 	-2.60139e-170
0.5761 	-1.80314e-170
0.5768 	-1.41698e-170
0.5775 	-1.14321e-170
0.5782 	-8.69445e-171
0.5789 	-5.95675e-171
0.5796 	-3.21905e-171
0.5803 	-1.4701e-171
0.581 	-1.03814e-171
0.5817 	-7.88235e-172
0.5824 	-6.39477e-172
0.5831 	-4.90718e-172
0.5838 	-3.4196e-172
0.5845 	-1.93201e-172
0.5852 	-8.04944e-173
0.5859 	-5.78066e-173
0.5866 	-4.25405e-173
0.5873 	-3.4696e-173
0.588 	-2.68515e-173
0.5887 	-1.90069e-173
0.5894 	-1.11624e-173
0.5901 	-4.27488e-174
0.5908 	-3.11724e-174
0.5915 	-2.22953e-174
0.5922 	-1.82769e-174
0.5929 	-1.42586e-174
0.5936 	-1.02403e-174
0.5943 	-6.22198e-175
0.595 	-2.20691e-175
0.5957 	-1.63009e-175
0.5964 	-1.13586e-175
0.5971 	-9.357e-176
0.5978 	-7.35544e-176
0.5985 	-5.35389e-176
0.5992 	-3.35233e-176
0.5999 	-1.35078e-176
0.6006 	-8.27493e-177
0.6013 	-5.62964e-177
0.602 	-4.65941e-177
0.6027 	-3.68919e-177
0.6034 	-2.71896e-177
0.6041 	-1.74873e-177
0.6048 	-7.78505e-178
0.6055 	-4.08283e-178
0.6062 	-2.77764e-178
0.6069 	-2.25899e-178
0.6076 	-1.80085e-178
0.6083 	-1.34271e-178
0.609 	-8.84569e-179
0.6097 	-4.26429e-179
0.6104 	-1.95975e-179
0.6111 	-1.36109e-179
0.6118 	-1.0671e-179
0.6125 	-8.56208e-180
0.6132 	-6.45316e-180
0.6139 	-4.34424e-180
0.6146 	-2.23533e-180
0.6153 	-9.159e-181
0.616 	-6.48017e-181
0.6167 	-4.91467e-181
0.6174 	-3.9677e-181
0.6181 	-3.02073e-181
0.6188 	-2.07375e-181
0.6195 	-1.12678e-181
0.6202 	-4.17149e-182
0.6209 	-3.00125e-182
0.6216 	-2.20857e-182
0.6223 	-1.79347e-182
0.623 	-1.37836e-182
0.6237 	-9.63259e-183
0.6244 	-5.48154e-183
0.6251 	-1.85309e-183
0.6258 	-1.35365e-183
0.6265 	-9.69101e-184
0.6272 	-7.91343e-184
0.6279 	-6.13586e-184
0.6286 	-4.35828e-184
0.6293 	-2.58071e-184
0.63 	-8.04376e-185
0.6307 	-5.95162e-185
0.6314 	-4.1549e-185
0.6321 	-3.41079e-185
0.6328 	-2.66668e-185
0.6335 	-1.92258e-185
0.6342 	-1.17847e-185
0.6349 	-4.34361e-186
0.6356 	-2.55329e-186
0.6363 	-1.74176e-186
0.637 	-1.43706e-186
0.6377 	-1.13235e-186
0.6384 	-8.27652e-187
0.6391 	-5.22949e-187
0.6398 	-2.18246e-187
0.6405 	-1.06984e-187
0.6412 	-7.29992e-188
0.6419 	-5.923e-188
0.6426 	-4.70159e-188
0.6433 	-3.48017e-188
0.644 	-2.25876e-188
0.6447 	-1.03735e-188
0.6454 	-4.38159e-189
0.6461 	-3.05144e-189
0.6468 	-2.38961e-189
0.6475 	-1.91004e-189
0.6482 	-1.43048e-189
0.6489 	-9.5091e-190
0.6496 	-4.71344e-190
0.6503 	-1.75548e-190
0.651 	-1.2452e-190
0.6517 	-9.44316e-191
0.6524 	-7.59768e-191
0.6531 	-5.7522e-191
0.6538 	-3.90671e-191
0.6545 	-2.06123e-191
0.6552 	-6.88602e-192
0.6559 	-4.966e-192
0.6566 	-3.65774e-192
0.6573 	-2.96122e-192
0.658 	-2.26471e-192
0.6587 	-1.56819e-192
0.6594 	-8.71677e-193
0.6601 	-2.64697e-193
0.6608 	-1.93784e-193
0.6615 	-1.38982e-193
0.6622 	-1.13179e-193
0.6629 	-8.73772e-194
0.6636 	-6.15749e-194
0.6643 	-3.57727e-194
0.665 	-9.98652e-195
0.6657 	-7.40462e-195
0.6664 	-5.1827e-195
0.6671 	-4.24409e-195
0.6678 	-3.30549e-195
0.6685 	-2.36689e-195
0.6692 	-1.42829e-195
0.6699 	-4.89684e-196
0.6706 	-2.77267e-196
0.6713 	-1.89771e-196
0.672 	-1.56227e-196
0.6727 	-1.22683e-196
0.6734 	-8.91386e-197
0.6741 	-5.55945e-197
0.6748 	-2.20504e-197
0.6755 	-1.01816e-197
0.6762 	-6.97158e-198
0.6769 	-5.64813e-198
0.6776 	-4.46979e-198
0.6783 	-3.29145e-198
0.679 	-2.11312e-198
0.6797 	-9.3478e-199
0.6804 	-3.66882e-199
0.6811 	-2.56319e-199
0.6818 	-2.00646e-199
0.6825 	-1.59943e-199
0.6832 	-1.1924e-199
0.6839 	-7.8537e-200
0.6846 	-3.78341e-200
0.6853 	-1.29795e-200
0.686 	-9.23334e-201
0.6867 	-7.00632e-201
0.6874 	-5.62326e-201
0.6881 	-4.24021e-201
0.6888 	-2.85715e-201
0.6895 	-1.4741e-201
0.6902 	-4.50853e-202
0.6909 	-3.25968e-202
0.6916 	-2.40407e-202
0.6923 	-1.9417e-202
0.693 	-1.47933e-202
0.6937 	-1.01696e-202
0.6944 	-5.54592e-203
0.6951 	-1.52394e-203
0.6958 	-1.10433e-203
0.6965 	-7.80757e-204
0.6972 	-6.30052e-204
0.6979 	-4.79347e-204
0.6986 	-3.28643e-204
0.6993 	-1.77938e-204
0.7 	-2.73163e-205
