0 	1
0.0007 	1
0.0014 	1
0.0021 	1
0.0028 	1
0.0035 	1
0.0042 	1
0.0049 	1
0.0056 	1
0.0063 	1
0.007 	1
0.0077 	1
0.0084 	1
0.0091 	1
0.0098 	1
0.0105 	1
0.0112 	1
0.0119 	1
0.0126 	1
0.0133 	1
0.014 	1
0.0147 	1
0.0154 	1
0.0161 	1
0.0168 	1
0.0175 	1
0.0182 	1
0.0189 	1
0.0196 	1
0.0203 	1
0.021 	1
0.0217 	1
0.0224 	1
0.0231 	1
0.0238 	1
0.0245 	1
0.0252 	1
0.0259 	1
0.0266 	1
0.0273 	1
0.028 	1
0.0287 	1
0.0294 	1
0.0301 	1
0.0308 	1
0.0315 	1
0.0322 	1
0.0329 	1
0.0336 	1
0.0343 	1
0.035 	1
0.0357 	1
0.0364 	1
0.0371 	1
0.0378 	1
0.0385 	1
0.0392 	1
0.0399 	1
0.0406 	1
0.0413 	1
0.042 	1
0.0427 	1
0.0434 	1
0.0441 	1
0.0448 	1
0.0455 	1
0.0462 	1
0.0469 	1
0.0476 	1
0.0483 	1
0.049 	1
0.0497 	1
0.0504 	1
0.0511 	1
0.0518 	1
0.0525 	1
0.0532 	1
0.0539 	1
0.0546 	1
0.0553 	1
0.056 	1
0.0567 	1
0.0574 	1
0.0581 	1
0.0588 	1
0.0595 	1
0.0602 	1
0.0609 	1
0.0616 	1
0.0623 	1
0.063 	1
0.0637 	1
0.0644 	1
0.0651 	1
0.0658 	1
0.0665 	1
0.0672 	1
0.0679 	1
0.0686 	1
0.0693 	1
0.07 	1
0.0707 	1
0.0714 	1
0.0721 	1
0.0728 	1
0.0735 	1
0.0742 	1
0.0749 	1
0.0756 	1
0.0763 	1
0.077 	1
0.0777 	1
0.0784 	1
0.0791 	1
0.0798 	1
0.0805 	1
0.0812 	1
0.0819 	1
0.0826 	1
0.0833 	1
0.084 	1
0.0847 	1
0.0854 	1
0.0861 	1
0.0868 	1
0.0875 	1
0.0882 	1
0.0889 	1
0.0896 	1
0.0903 	1
0.091 	1
0.0917 	1
0.0924 	1
0.0931 	1
0.0938 	1
0.0945 	1
0.0952 	1
0.0959 	1
0.0966 	1
0.0973 	1
0.098 	1
0.0987 	1
0.0994 	1
0.1001 	1
0.1008 	1
0.1015 	1
0.1022 	1
0.1029 	1
0.1036 	1
0.1043 	1
0.105 	1
0.1057 	1
0.1064 	1
0.1071 	1
0.1078 	1
0.1085 	1
0.1092 	1
0.1099 	1
0.1106 	1
0.1113 	1
0.112 	1
0.1127 	1
0.1134 	1
0.1141 	1
0.1148 	1
0.1155 	1
0.1162 	1
0.1169 	0.999999
0.1176 	0.999999
0.1183 	0.999999
0.119 	0.999999
0.1197 	0.999999
0.1204 	0.999999
0.1211 	0.999998
0.1218 	0.999998
0.1225 	0.999998
0.1232 	0.999998
0.1239 	0.999998
0.1246 	0.999998
0.1253 	0.999997
0.126 	0.999997
0.1267 	0.999996
0.1274 	0.999996
0.1281 	0.999996
0.1288 	0.999996
0.1295 	0.999996
0.1302 	0.999996
0.1309 	0.999995
0.1316 	0.999995
0.1323 	0.999995
0.133 	0.999995
0.1337 	0.999995
0.1344 	0.999995
0.1351 	0.999995
0.1358 	0.999995
0.1365 	0.999994
0.1372 	0.999994
0.1379 	0.999994
0.1386 	0.999994
0.1393 	0.999994
0.14 	0.999994
0.1407 	0.999994
0.1414 	0.999994
0.1421 	0.999994
0.1428 	0.999994
0.1435 	0.999994
0.1442 	0.999994
0.1449 	0.999993
0.1456 	0.999994
0.1463 	0.999995
0.147 	0.999994
0.1477 	0.999994
0.1484 	0.999994
0.1491 	0.999994
0.1498 	0.999994
0.1505 	0.999994
0.1512 	0.999995
0.1519 	0.999995
0.1526 	0.999995
0.1533 	0.999994
0.154 	0.999994
0.1547 	0.999994
0.1554 	0.999994
0.1561 	0.999993
0.1568 	0.999992
0.1575 	0.99999
0.1582 	0.999989
0.1589 	0.999987
0.1596 	0.999986
0.1603 	0.999985
0.161 	0.999984
0.1617 	0.999983
0.1624 	0.999982
0.1631 	0.99998
0.1638 	0.999979
0.1645 	0.999978
0.1652 	0.999977
0.1659 	0.999977
0.1666 	0.999977
0.1673 	0.999978
0.168 	0.999979
0.1687 	0.99998
0.1694 	0.999981
0.1701 	0.999981
0.1708 	0.999982
0.1715 	0.999982
0.1722 	0.999983
0.1729 	0.999983
0.1736 	0.999984
0.1743 	0.999984
0.175 	0.999984
0.1757 	0.999983
0.1764 	0.999981
0.1771 	0.999979
0.1778 	0.999976
0.1785 	0.999973
0.1792 	0.99997
0.1799 	0.999967
0.1806 	0.999967
0.1813 	0.999967
0.182 	0.999966
0.1827 	0.999966
0.1834 	0.999965
0.1841 	0.999965
0.1848 	0.999964
0.1855 	0.999965
0.1862 	0.999968
0.1869 	0.999972
0.1876 	0.999976
0.1883 	0.999979
0.189 	0.999983
0.1897 	0.999986
0.1904 	0.999988
0.1911 	0.99999
0.1918 	0.999992
0.1925 	0.999993
0.1932 	0.999992
0.1939 	0.99999
0.1946 	0.999986
0.1953 	0.999983
0.196 	0.999982
0.1967 	0.999982
0.1974 	0.999984
0.1981 	0.999984
0.1988 	0.999982
0.1995 	0.999977
0.2002 	0.999891
0.2009 	0.999675
0.2135 	0.000181897
0.2142 	0.000245891
0.2149 	0.000303554
0.2156 	0.000291967
0.2163 	0.000264057
0.2205 	2.50744e-06
0.2212 	2.72029e-06
0.2219 	2.94793e-06
0.2226 	3.05289e-06
0.2233 	2.41499e-06
0.224 	1.71283e-06
0.2247 	8.94995e-07
0.2254 	4.19633e-07
0.2261 	2.01131e-07
0.2268 	1.01034e-07
0.2275 	3.32464e-08
0.2282 	2.25815e-08
0.2345 	2.16728e-05
0.2352 	1.97772e-05
0.2359 	1.3894e-05
0.2366 	8.335e-06
0.238 	1.11397e-06
0.2387 	4.27413e-07
0.2394 	7.08593e-07
0.2401 	1.14232e-06
0.2408 	2.04545e-06
0.2415 	2.59083e-06
0.2422 	2.49204e-06
0.2429 	1.89367e-06
0.2436 	9.20601e-07
0.2443 	4.17464e-07
0.245 	4.26104e-08
0.2457 	2.06899e-08
0.2464 	3.19499e-09
0.2471 	1.9261e-09
0.2478 	1.19868e-09
0.2485 	1.19321e-09
0.2492 	2.08457e-09
0.2499 	3.47449e-09
0.2506 	2.04133e-08
0.2513 	4.7842e-08
0.2534 	7.2735e-07
0.2541 	1.01735e-06
0.2548 	1.2422e-06
0.2555 	1.09587e-06
0.2562 	8.01058e-07
0.2569 	4.62824e-07
0.2576 	1.72481e-07
0.2597 	1.61381e-06
0.2604 	4.99284e-06
0.2681 	8.59024e-06
0.2688 	3.56007e-06
0.2695 	2.67728e-06
0.2702 	2.08795e-06
0.2709 	2.23228e-06
0.2716 	2.6629e-06
0.2723 	3.37935e-06
0.273 	4.11809e-06
0.2737 	4.86574e-06
0.2744 	5.13796e-06
0.2751 	5.33284e-06
0.2758 	5.28182e-06
0.2765 	5.02375e-06
0.2772 	4.39433e-06
0.2779 	3.56295e-06
0.2786 	2.58011e-06
0.2793 	2.77526e-06
0.2849 	2.2915e-06
0.2856 	1.29079e-06
0.2863 	4.36771e-07
0.287 	2.52715e-07
0.2877 	1.20198e-07
0.2884 	1.16531e-07
0.2891 	1.90051e-07
0.2898 	3.40851e-07
0.2905 	1.32974e-06
0.2912 	2.65387e-06
0.2919 	5.30124e-06
0.2926 	7.91167e-06
0.2968 	5.62273e-06
0.2975 	3.28381e-06
0.2982 	1.91152e-06
0.2989 	7.99018e-07
0.2996 	6.41298e-07
0.3073 	9.49593e-08
0.308 	4.19812e-07
0.3087 	8.53757e-07
0.3094 	1.35696e-06
0.3122 	1.10184e-06
0.3129 	6.81542e-07
0.3136 	3.01093e-07
0.3143 	1.87705e-07
0.315 	1.47195e-07
0.3157 	4.20364e-07
0.3164 	7.27889e-07
0.3171 	1.16154e-06
0.3178 	1.47522e-06
0.3185 	1.62893e-06
0.3192 	1.51461e-06
0.3199 	1.25127e-06
0.3206 	8.48942e-07
0.3213 	4.38095e-07
0.322 	2.18113e-07
0.3227 	5.16048e-08
0.3234 	1.87812e-08
0.3241 	1.78757e-09
0.3248 	6.40409e-10
0.3255 	3.18807e-10
0.3262 	3.27426e-10
0.3269 	8.74156e-10
0.3276 	2.53813e-09
0.3325 	2.21885e-07
0.3332 	1.95162e-07
0.3339 	1.65282e-07
0.3346 	1.23859e-07
0.3353 	8.23504e-08
0.336 	4.07275e-08
0.3367 	1.82065e-08
0.3374 	6.33003e-09
0.3381 	5.66202e-09
0.3388 	6.86547e-09
0.3395 	8.11516e-09
0.3402 	8.62678e-09
0.3465 	3.79892e-11
0.3479 	3.21207e-11
0.3486 	2.60811e-11
0.3493 	1.8852e-11
0.35 	1.13032e-11
0.3507 	6.89683e-12
0.3514 	3.14143e-12
0.3521 	1.77707e-12
0.3528 	8.4378e-13
0.3535 	4.85245e-13
0.3633 	4.3043e-16
0.364 	1.73134e-16
0.3647 	7.38354e-17
0.3654 	2.22261e-17
0.3661 	6.38369e-18
0.3668 	1.8111e-18
0.3675 	3.10866e-19
0.3682 	1.713e-19
0.3689 	5.68652e-20
0.3696 	3.45344e-20
0.3703 	1.90716e-20
0.371 	1.27661e-20
0.3717 	8.72871e-21
0.3724 	5.95094e-21
0.3731 	4.18464e-21
0.3738 	2.63482e-21
0.3745 	1.70552e-21
0.3752 	9.18595e-22
0.3759 	4.87641e-22
0.3766 	2.07187e-22
0.3773 	7.71683e-23
0.3787 	4.29303e-24
0.3794 	1.40699e-24
0.3801 	1.07984e-25
0.3808 	4.60179e-26
0.3815 	5.08418e-27
0.3822 	2.05972e-27
0.3829 	8.40124e-28
0.3836 	9.74185e-28
0.3871 	3.76663e-26
0.3878 	7.08954e-26
0.3885 	1.22362e-25
0.3892 	2.06052e-25
0.3899 	3.07688e-25
0.3906 	4.28145e-25
0.3913 	5.47841e-25
0.392 	6.17252e-25
0.3927 	6.68132e-25
0.3934 	6.72686e-25
0.3941 	6.58019e-25
0.3948 	6.24117e-25
0.3955 	5.56646e-25
0.4025 	5.04207e-27
0.4074 	3.8076e-28
0.4081 	2.72143e-28
0.4088 	1.82423e-28
0.4172 	1.14154e-30
0.4179 	6.11075e-31
0.4186 	3.11183e-31
0.4193 	1.70391e-31
0.42 	7.28868e-32
0.4207 	4.34361e-32
0.4214 	1.85091e-32
0.4221 	1.01294e-32
0.4228 	4.3763e-33
0.4235 	2.12527e-33
0.4298 	2.02026e-36
0.4305 	1.77477e-36
0.4312 	1.7439e-36
0.434 	2.0836e-36
0.4403 	1.07432e-36
0.441 	7.70577e-37
0.4417 	5.30587e-37
0.4424 	3.25951e-37
0.4431 	2.15333e-37
0.4487 	1.57278e-38
0.4494 	1.19544e-38
0.4501 	8.51663e-39
0.4508 	6.29282e-39
0.4515 	4.41178e-39
0.4522 	3.14737e-39
0.4529 	2.21145e-39
0.4536 	1.5219e-39
0.4543 	1.08384e-39
0.455 	7.1434e-40
0.4557 	5.18538e-40
0.4564 	3.42817e-40
0.4571 	2.40721e-40
0.4578 	1.60055e-40
0.4585 	1.07961e-40
0.4592 	7.26548e-41
0.4599 	4.66777e-41
0.4606 	3.2097e-41
0.4613 	1.98873e-41
0.462 	1.38163e-41
0.4627 	8.66503e-42
0.4634 	5.81291e-42
0.4641 	3.72833e-42
0.4648 	2.41146e-42
0.4655 	1.60573e-42
0.4662 	1.00447e-42
0.4711 	7.10535e-44
0.4837 	1.68897e-48
0.4844 	9.78805e-49
0.4851 	4.22382e-49
0.4858 	2.3378e-49
0.4865 	9.4672e-50
0.4872 	4.47708e-50
0.4879 	1.71723e-50
0.4886 	6.30074e-51
0.4893 	2.46089e-51
0.49 	5.41753e-52
0.4907 	2.909e-52
0.4914 	9.04255e-53
0.4921 	7.47914e-53
0.4928 	6.8425e-53
0.497 	4.07637e-52
0.4977 	5.39274e-52
0.4984 	6.60285e-52
0.4991 	7.41037e-52
0.4998 	7.81556e-52
0.5005 	7.82846e-52
0.5033 	5.30671e-52
0.504 	4.10449e-52
0.5047 	2.79672e-52
0.5054 	1.73491e-52
0.5061 	8.57556e-53
0.5068 	4.19243e-53
0.5075 	1.00416e-53
0.5082 	4.72878e-54
0.5089 	4.91084e-55
0.5103 	9.91142e-57
0.511 	3.33359e-57
0.5117 	6.85908e-58
0.5124 	2.17477e-58
0.5131 	8.63641e-59
0.5138 	1.629e-59
0.5166 	1.6843e-60
0.5173 	1.43684e-60
0.518 	1.2049e-60
0.5243 	4.69124e-62
0.525 	2.66491e-62
0.5257 	1.80497e-62
0.5264 	1.04882e-62
0.5271 	6.72946e-63
0.5278 	3.89173e-63
0.5292 	1.29956e-63
0.5299 	6.6571e-64
0.5306 	3.83898e-64
0.5313 	1.71633e-64
0.532 	1.0091e-64
0.5327 	4.44983e-65
0.5348 	5.0857e-66
0.5355 	2.42777e-66
0.5362 	9.63908e-67
0.5369 	5.20966e-67
0.5376 	1.96049e-67
0.5383 	1.07534e-67
0.539 	4.29761e-68
0.5439 	1.2929e-70
0.5446 	6.15641e-71
0.5453 	1.80616e-71
0.5481 	2.11929e-72
0.5488 	3.08936e-72
0.5495 	7.04923e-72
0.5502 	1.41489e-71
0.5509 	2.90979e-71
0.567 	-1.95351e-72
0.5677 	-2.27995e-72
0.5684 	-2.5331e-72
0.5691 	-2.74718e-72
0.5698 	-2.92222e-72
0.5817 	-3.83566e-72
0.5824 	-3.84069e-72
0.5831 	-3.83176e-72
0.5838 	-3.8192e-72
0.5866 	-3.65049e-72
0.5873 	-3.5851e-72
0.588 	-3.50878e-72
0.5887 	-3.4281e-72
0.5894 	-3.33585e-72
0.5901 	-3.24135e-72
0.5908 	-3.13878e-72
0.5915 	-3.03387e-72
0.5922 	-2.92478e-72
0.5943 	-2.5861e-72
0.595 	-2.47139e-72
0.5957 	-2.35681e-72
0.5964 	-2.24258e-72
0.5985 	-1.90785e-72
0.5992 	-1.80027e-72
0.5999 	-1.69408e-72
0.6006 	-1.59194e-72
0.6013 	-1.49086e-72
0.602 	-1.39481e-72
0.6034 	-1.21035e-72
0.6041 	-1.12343e-72
0.6048 	-1.0397e-72
0.6062 	-8.83608e-73
0.6083 	-6.80046e-73
0.609 	-6.18995e-73
0.6153 	-2.32598e-73
0.616 	-2.05162e-73
0.6167 	-1.80635e-73
0.6174 	-1.57722e-73
0.6181 	-1.38249e-73
0.6188 	-1.196e-73
0.6195 	-1.04206e-73
0.6202 	-8.9674e-74
0.6209 	-7.72968e-74
0.6216 	-6.61984e-74
0.6223 	-5.63777e-74
0.623 	-4.80805e-74
0.6237 	-4.03927e-74
0.6244 	-3.43325e-74
0.6251 	-2.85996e-74
0.6258 	-2.40814e-74
0.6265 	-1.99662e-74
0.6286 	-1.11845e-74
0.6293 	-9.21327e-75
0.63 	-7.38788e-75
0.6307 	-6.07881e-75
0.6314 	-4.8523e-75
0.6321 	-3.92814e-75
0.6328 	-3.1249e-75
0.6363 	-9.29519e-76
0.637 	-7.34642e-76
0.6377 	-5.59286e-76
0.6412 	-1.38554e-76
0.6419 	-1.06046e-76
0.6426 	-7.66871e-77
0.6433 	-5.79e-77
0.644 	-4.18505e-77
0.6447 	-3.07249e-77
0.6454 	-2.22649e-77
0.6461 	-1.58043e-77
0.6468 	-1.1531e-77
0.6475 	-7.85374e-78
0.6482 	-5.80302e-78
0.6489 	-3.95189e-78
0.6496 	-2.83187e-78
0.6503 	-1.93519e-78
0.651 	-1.33633e-78
0.6517 	-9.21053e-79
0.6573 	-3.44603e-80
0.658 	-2.27486e-80
0.6587 	-1.38965e-80
0.6594 	-9.48128e-81
0.6601 	-5.72526e-81
0.6608 	-3.88077e-81
0.6615 	-2.40054e-81
0.6622 	-1.57558e-81
0.6629 	-1.01217e-81
0.6636 	-6.44917e-82
0.6643 	-4.36959e-82
0.665 	-2.72412e-82
0.6657 	-1.97101e-82
0.6664 	-1.3026e-82
0.6671 	-9.44448e-83
0.6678 	-6.62819e-83
0.6706 	-2.02071e-83
0.6713 	-1.49736e-83
0.6776 	-1.5929e-84
0.6783 	-1.27573e-84
0.679 	-9.98211e-85
0.6797 	-7.92024e-85
0.6804 	-6.26633e-85
0.6818 	-3.93452e-85
0.6825 	-3.0498e-85
0.6832 	-2.46789e-85
0.6839 	-1.92867e-85
0.6846 	-1.54582e-85
0.6853 	-1.21918e-85
0.6867 	-7.71302e-86
0.6874 	-6.05937e-86
0.6881 	-4.89084e-86
0.6888 	-3.82959e-86
0.6937 	-7.97543e-87
0.6944 	-6.43464e-87
0.6951 	-5.00938e-87
0.6958 	-3.98632e-87
0.6965 	-3.08254e-87
0.6972 	-2.39735e-87
0.6979 	-1.84475e-87
0.6986 	-1.39277e-87
0.6993 	-1.16432e-87
0.7 	-9.95546e-88
