0 	1
0.0007 	1
0.0014 	1
0.0021 	1
0.0028 	1
0.0035 	1
0.0042 	1
0.0049 	1
0.0056 	1
0.0063 	1
0.007 	1
0.0077 	1
0.0084 	1
0.0091 	1
0.0098 	1
0.0105 	1
0.0112 	1
0.0119 	1
0.0126 	1
0.0133 	1
0.014 	1
0.0147 	1
0.0154 	1
0.0161 	1
0.0168 	1
0.0175 	1
0.0182 	1
0.0189 	1
0.0196 	1
0.0203 	1
0.021 	1
0.0217 	1
0.0224 	1
0.0231 	1
0.0238 	1
0.0245 	1
0.0252 	1
0.0259 	1
0.0266 	1
0.0273 	1
0.028 	1
0.0287 	1
0.0294 	1
0.0301 	1
0.0308 	1
0.0315 	1
0.0322 	1
0.0329 	1
0.0336 	1
0.0343 	1
0.035 	1
0.0357 	1
0.0364 	1
0.0371 	1
0.0378 	1
0.0385 	1
0.0392 	1
0.0399 	1
0.0406 	1
0.0413 	1
0.042 	1
0.0427 	1
0.0434 	1
0.0441 	1
0.0448 	1
0.0455 	1
0.0462 	1
0.0469 	1
0.0476 	1
0.0483 	1
0.049 	1
0.0497 	1
0.0504 	1
0.0511 	1
0.0518 	1
0.0525 	1
0.0532 	1
0.0539 	1
0.0546 	1
0.0553 	1
0.056 	1
0.0567 	1
0.0574 	1
0.0581 	1
0.0588 	1
0.0595 	1
0.0602 	1
0.0609 	1
0.0616 	1
0.0623 	1
0.063 	1
0.0637 	1
0.0644 	1
0.0651 	1
0.0658 	1
0.0665 	1
0.0672 	1
0.0679 	1
0.0686 	1
0.0693 	1
0.07 	1
0.0707 	1
0.0714 	1
0.0721 	1
0.0728 	1
0.0735 	1
0.0742 	1
0.0749 	1
0.0756 	1
0.0763 	1
0.077 	1
0.0777 	1
0.0784 	1
0.0791 	1
0.0798 	1
0.0805 	1
0.0812 	1
0.0819 	1
0.0826 	1
0.0833 	1
0.084 	1
0.0847 	1
0.0854 	1
0.0861 	1
0.0868 	1
0.0875 	1
0.0882 	1
0.0889 	1
0.0896 	1
0.0903 	1
0.091 	1
0.0917 	1
0.0924 	1
0.0931 	1
0.0938 	1
0.0945 	1
0.0952 	1
0.0959 	1
0.0966 	1
0.0973 	1
0.098 	1
0.0987 	1
0.0994 	1
0.1001 	1
0.1008 	1
0.1015 	1
0.1022 	1
0.1029 	1
0.1036 	1
0.1043 	1
0.105 	1
0.1057 	1
0.1064 	1
0.1071 	1
0.1078 	1
0.1085 	1
0.1092 	1
0.1099 	1
0.1106 	1
0.1113 	1
0.112 	1
0.1127 	1
0.1134 	1
0.1141 	1
0.1148 	1
0.1155 	1
0.1162 	1
0.1169 	1
0.1176 	1
0.1183 	1
0.119 	1
0.1197 	1
0.1204 	1
0.1211 	1
0.1218 	1
0.1225 	1
0.1232 	1
0.1239 	1
0.1246 	1
0.1253 	1
0.126 	1
0.1267 	1
0.1274 	1
0.1281 	1
0.1288 	1
0.1295 	1
0.1302 	1
0.1309 	1
0.1316 	1
0.1323 	1
0.133 	1
0.1337 	1
0.1344 	1
0.1351 	1
0.1358 	1
0.1365 	1
0.1372 	1
0.1379 	1
0.1386 	1
0.1393 	1
0.14 	1
0.1407 	1
0.1414 	1
0.1421 	1
0.1428 	1
0.1435 	1
0.1442 	1
0.1449 	1
0.1456 	1
0.1463 	1
0.147 	1
0.1477 	1
0.1484 	1
0.1491 	1
0.1498 	1
0.1505 	1
0.1512 	1
0.1519 	1
0.1526 	1
0.1533 	1
0.154 	1
0.1547 	1
0.1554 	1
0.1561 	1
0.1568 	1
0.1575 	1
0.1582 	1
0.1589 	1
0.1596 	1
0.1603 	1
0.161 	1
0.1617 	1
0.1624 	1
0.1631 	1
0.1638 	1
0.1645 	1
0.1652 	1
0.1659 	1
0.1666 	1
0.1673 	1
0.168 	1
0.1687 	1
0.1694 	1
0.1701 	1
0.1708 	1
0.1715 	1
0.1722 	1
0.1729 	1
0.1736 	1
0.1743 	1
0.175 	1
0.1757 	1
0.1764 	1
0.1771 	1
0.1778 	1
0.1785 	1
0.1792 	1
0.1799 	1
0.1806 	1
0.1813 	1
0.182 	1
0.1827 	1
0.1834 	1
0.1841 	1
0.1848 	1
0.1855 	1
0.1862 	1
0.1869 	1
0.1876 	1
0.1883 	1
0.189 	1
0.1897 	1
0.1904 	1
0.1911 	1
0.1918 	1
0.1925 	1
0.1932 	1
0.1939 	1
0.1946 	1
0.1953 	1
0.196 	1
0.1967 	1
0.1974 	1
0.1981 	1
0.1988 	1
0.1995 	1
0.2002 	1
0.2009 	1
0.2016 	1
0.2023 	1
0.203 	1
0.2037 	1
0.2044 	1
0.2051 	1
0.2058 	1
0.2065 	1
0.2072 	1
0.2079 	1
0.2086 	1
0.2093 	1
0.21 	1
0.2107 	1
0.2114 	1
0.2121 	1
0.2128 	1
0.2135 	1
0.2142 	1
0.2149 	1
0.2156 	1
0.2163 	1
0.217 	1
0.2177 	1
0.2184 	1
0.2191 	1
0.2198 	1
0.2205 	1
0.2212 	1
0.2219 	1
0.2226 	1
0.2233 	1
0.224 	1
0.2247 	1
0.2254 	0.999995
0.2261 	0.999986
0.2268 	0.999978
0.2275 	0.999969
0.2282 	0.999961
0.2289 	0.999952
0.2296 	0.999944
0.2303 	0.999555
0.231 	0.998661
0.2317 	0.997766
0.2324 	0.996872
0.2331 	0.995977
0.2338 	0.995082
0.2345 	0.994188
0.2352 	0.989134
0.2359 	0.973666
0.2366 	0.958198
0.2373 	0.942731
0.238 	0.927264
0.2387 	0.911797
0.2394 	0.89633
0.2401 	0.874988
0.2408 	0.818343
0.2415 	0.761698
0.2422 	0.705053
0.2429 	0.648408
0.2436 	0.591763
0.2443 	0.535119
0.245 	0.478466
0.2457 	0.424415
0.2464 	0.370373
0.2471 	0.316331
0.2478 	0.262288
0.2485 	0.208246
0.2492 	0.154204
0.2499 	0.100162
0.2506 	0.0817819
0.2513 	0.0693441
0.252 	0.0569057
0.2527 	0.0444672
0.2534 	0.0320288
0.2541 	0.0195904
0.2548 	0.00715193
0.2555 	0.00325788
0.2562 	0.00277701
0.2569 	0.00229611
0.2576 	0.00181521
0.2583 	0.0013343
0.259 	0.0008534
0.2597 	0.000372497
0.2604 	0.000153865
0.2611 	0.00013172
0.2618 	0.000109573
0.2625 	8.74268e-05
0.2632 	6.52802e-05
0.2639 	4.31335e-05
0.2646 	2.09869e-05
0.2653 	7.86085e-06
0.266 	6.74914e-06
0.2667 	5.6374e-06
0.2674 	4.52563e-06
0.2681 	3.41386e-06
0.2688 	2.3021e-06
0.2695 	1.19033e-06
0.2702 	3.81364e-07
0.2709 	3.28404e-07
0.2716 	2.75445e-07
0.2723 	2.22486e-07
0.273 	1.69527e-07
0.2737 	1.16568e-07
0.2744 	6.3609e-08
0.2751 	1.78812e-08
0.2758 	1.5444e-08
0.2765 	1.30069e-08
0.2772 	1.05702e-08
0.2779 	8.1335e-09
0.2786 	5.69679e-09
0.2793 	3.26008e-09
0.28 	8.24072e-10
0.2807 	7.14948e-10
0.2814 	6.05901e-10
0.2821 	4.96899e-10
0.2828 	3.87896e-10
0.2835 	2.78894e-10
0.2842 	1.69891e-10
0.2849 	6.08888e-11
0.2856 	4.08937e-11
0.2863 	3.57e-11
0.287 	3.05099e-11
0.2877 	2.53199e-11
0.2884 	2.01298e-11
0.2891 	1.49398e-11
0.2898 	9.7497e-12
0.2905 	7.89435e-12
0.2912 	7.37116e-12
0.2919 	6.84822e-12
0.2926 	6.32532e-12
0.2933 	5.80241e-12
0.294 	5.2795e-12
0.2947 	4.75659e-12
0.2954 	4.37541e-12
0.2961 	4.10037e-12
0.2968 	3.82576e-12
0.2975 	3.55125e-12
0.2982 	3.27675e-12
0.2989 	3.00225e-12
0.2996 	2.72774e-12
0.3003 	2.4756e-12
0.301 	2.25335e-12
0.3017 	2.0316e-12
0.3024 	1.81014e-12
0.3031 	1.58868e-12
0.3038 	1.36721e-12
0.3045 	1.14575e-12
0.3052 	9.58939e-13
0.3059 	8.58795e-13
0.3066 	7.58889e-13
0.3073 	6.59219e-13
0.308 	5.5955e-13
0.3087 	4.5988e-13
0.3094 	3.60211e-13
0.3101 	2.70786e-13
0.3108 	2.42767e-13
0.3115 	2.14803e-13
0.3122 	1.86936e-13
0.3129 	1.5907e-13
0.3136 	1.31203e-13
0.3143 	1.03337e-13
0.315 	7.54745e-14
0.3157 	6.7385e-14
0.3164 	5.93081e-14
0.3171 	5.12689e-14
0.3178 	4.32296e-14
0.3185 	3.51903e-14
0.3192 	2.71511e-14
0.3199 	1.91118e-14
0.3206 	1.61971e-14
0.3213 	1.41366e-14
0.322 	1.20885e-14
0.3227 	1.00405e-14
0.3234 	7.99244e-15
0.3241 	5.94439e-15
0.3248 	3.89634e-15
0.3255 	3.02696e-15
0.3262 	2.62867e-15
0.3269 	2.23303e-15
0.3276 	1.83758e-15
0.3283 	1.44213e-15
0.329 	1.04669e-15
0.3297 	6.51243e-16
0.3304 	4.47442e-16
0.3311 	3.87261e-16
0.3318 	3.27443e-16
0.3325 	2.67725e-16
0.3332 	2.08006e-16
0.3339 	1.48288e-16
0.3346 	8.85695e-17
0.3353 	5.1442e-17
0.336 	4.44089e-17
0.3367 	3.7413e-17
0.3374 	3.04377e-17
0.3381 	2.34624e-17
0.3388 	1.64872e-17
0.3395 	9.51191e-18
0.3402 	4.35914e-18
0.3409 	3.75712e-18
0.3416 	3.15775e-18
0.3423 	2.56102e-18
0.343 	1.9643e-18
0.3437 	1.36758e-18
0.3444 	7.70861e-19
0.3451 	2.545e-19
0.3458 	2.19241e-19
0.3465 	1.84101e-19
0.3472 	1.49178e-19
0.3479 	1.14256e-19
0.3486 	7.93329e-20
0.3493 	4.44102e-20
0.35 	9.49788e-21
0.3507 	8.19237e-21
0.3514 	6.89057e-21
0.3521 	5.59977e-21
0.3528 	4.30897e-21
0.3535 	3.01817e-21
0.3542 	1.72737e-21
0.3549 	4.36567e-22
0.3556 	2.23463e-22
0.3563 	1.89563e-22
0.357 	1.5607e-22
0.3577 	1.22578e-22
0.3584 	8.90853e-23
0.3591 	5.55928e-23
0.3598 	2.21003e-23
0.3605 	1.13605e-23
0.3612 	9.70918e-24
0.3619 	8.07831e-24
0.3626 	6.449e-24
0.3633 	4.8197e-24
0.364 	3.19039e-24
0.3647 	1.56109e-24
0.3654 	7.96146e-25
0.3661 	6.78805e-25
0.3668 	5.62532e-25
0.3675 	4.4655e-25
0.3682 	3.30568e-25
0.3689 	2.14585e-25
0.3696 	9.86033e-26
0.3703 	3.04395e-26
0.371 	2.59589e-26
0.3717 	2.15075e-26
0.3724 	1.70723e-26
0.3731 	1.2637e-26
0.3738 	8.2018e-27
0.3745 	3.76657e-27
0.3752 	5.75876e-28
0.3759 	4.91863e-28
0.3766 	4.08184e-28
0.3773 	3.24841e-28
0.378 	2.41499e-28
0.3787 	1.58156e-28
0.3794 	7.48132e-29
0.3801 	3.3348e-30
0.3808 	2.85713e-30
0.3815 	2.38024e-30
0.3822 	1.90475e-30
0.3829 	1.42926e-30
0.3836 	9.5377e-31
0.3843 	4.7828e-31
0.385 	2.94432e-33
0.3857 	2.53186e-33
0.3864 	2.11969e-33
0.3871 	1.70759e-33
0.3878 	1.29549e-33
0.3885 	8.83388e-34
0.3892 	4.71287e-34
0.3899 	5.91865e-35
0.3906 	3.94781e-37
0.3913 	3.31854e-37
0.392 	2.69689e-37
0.3927 	2.07524e-37
0.3934 	1.45358e-37
0.3941 	8.31928e-38
0.3948 	2.10275e-38
0.3955 	2.95147e-39
0.3962 	2.48383e-39
0.3969 	2.03182e-39
0.3976 	1.58101e-39
0.3983 	1.1302e-39
0.399 	6.79388e-40
0.3997 	2.28577e-40
0.4004 	3.25987e-41
0.4011 	2.75001e-41
0.4018 	2.25545e-41
0.4025 	1.76506e-41
0.4032 	1.27467e-41
0.4039 	7.8428e-42
0.4046 	2.9389e-42
0.4053 	1.29703e-43
0.406 	1.09813e-43
0.4067 	9.0395e-44
0.4074 	7.12397e-44
0.4081 	5.20844e-44
0.4088 	3.29291e-44
0.4095 	1.37737e-44
0.4102 	9.35131e-47
0.4109 	7.95079e-47
0.4116 	6.57386e-47
0.4123 	5.2205e-47
0.413 	3.86714e-47
0.4137 	2.51378e-47
0.4144 	1.16042e-47
0.4151 	8.19668e-51
0.4158 	6.99789e-51
0.4165 	5.81211e-51
0.4172 	4.64973e-51
0.4179 	3.48735e-51
0.4186 	2.32497e-51
0.4193 	1.16258e-51
0.42 	5.73712e-55
0.4207 	4.91508e-55
0.4214 	4.09874e-55
0.4221 	3.30179e-55
0.4228 	2.50484e-55
0.4235 	1.70789e-55
0.4242 	9.10933e-56
0.4249 	1.13981e-56
0.4256 	3.37409e-59
0.4263 	2.82458e-59
0.427 	2.29022e-59
0.4277 	1.75585e-59
0.4284 	1.22149e-59
0.4291 	6.8712e-60
0.4298 	1.52755e-60
0.4305 	2.23267e-63
0.4312 	1.8773e-63
0.4319 	1.531e-63
0.4326 	1.18539e-63
0.4333 	8.39789e-64
0.434 	4.94185e-64
0.4347 	1.48582e-64
0.4354 	6.09947e-67
0.4361 	6.70491e-67
0.4368 	7.95437e-67
0.4375 	9.37945e-67
0.4382 	1.08045e-66
0.4389 	1.22296e-66
0.4396 	1.36547e-66
0.4403 	1.54092e-66
0.441 	1.76055e-66
0.4417 	2.11943e-66
0.4424 	2.55569e-66
0.4431 	2.99194e-66
0.4438 	3.42819e-66
0.4445 	3.86444e-66
0.4452 	4.27764e-66
0.4459 	4.63408e-66
0.4466 	5.16668e-66
0.4473 	5.87546e-66
0.448 	6.58423e-66
0.4487 	7.29301e-66
0.4494 	8.00178e-66
0.4501 	8.66157e-66
0.4508 	9.02979e-66
0.4515 	9.52808e-66
0.4522 	1.02605e-65
0.4529 	1.09929e-65
0.4536 	1.17253e-65
0.4543 	1.24578e-65
0.455 	1.31906e-65
0.4557 	1.34189e-65
0.4564 	1.36964e-65
0.4571 	1.4152e-65
0.4578 	1.46075e-65
0.4585 	1.50631e-65
0.4592 	1.55186e-65
0.4599 	1.59742e-65
0.4606 	1.61048e-65
0.4613 	1.61868e-65
0.462 	1.63394e-65
0.4627 	1.6492e-65
0.4634 	1.66446e-65
0.4641 	1.67972e-65
0.4648 	1.69498e-65
0.4655 	1.6921e-65
0.4662 	1.68195e-65
0.4669 	1.66249e-65
0.4676 	1.64231e-65
0.4683 	1.62213e-65
0.469 	1.60195e-65
0.4697 	1.58177e-65
0.4704 	1.55272e-65
0.4711 	1.517e-65
0.4718 	1.45349e-65
0.4725 	1.3824e-65
0.4732 	1.31131e-65
0.4739 	1.24022e-65
0.4746 	1.16914e-65
0.4753 	1.10965e-65
0.476 	1.06554e-65
0.4767 	9.93398e-66
0.4774 	9.05686e-66
0.4781 	8.17974e-66
0.4788 	7.30263e-66
0.4795 	6.42551e-66
0.4802 	5.7177e-66
0.4809 	5.43189e-66
0.4816 	5.00514e-66
0.4823 	4.43743e-66
0.483 	3.86973e-66
0.4837 	3.30202e-66
0.4844 	2.73431e-66
0.4851 	2.23009e-66
0.4858 	2.10529e-66
0.4865 	1.9366e-66
0.4872 	1.68892e-66
0.4879 	1.44123e-66
0.4886 	1.19355e-66
0.4893 	9.45865e-67
0.49 	6.98291e-67
0.4907 	6.56174e-67
0.4914 	6.0521e-67
0.4921 	5.21733e-67
0.4928 	4.38256e-67
0.4935 	3.54779e-67
0.4942 	2.71301e-67
0.4949 	1.87824e-67
0.4956 	1.66222e-67
0.4963 	1.54105e-67
0.497 	1.31669e-67
0.4977 	1.09233e-67
0.4984 	8.67967e-68
0.4991 	6.43607e-68
0.4998 	4.19248e-68
0.5005 	3.37992e-68
0.5012 	3.13872e-68
0.5019 	2.6781e-68
0.5026 	2.20059e-68
0.5033 	1.72309e-68
0.504 	1.24558e-68
0.5047 	7.68079e-69
0.5054 	5.40695e-69
0.5061 	5.00627e-69
0.5068 	4.29779e-69
0.5075 	3.50536e-69
0.5082 	2.71293e-69
0.5089 	1.9205e-69
0.5096 	1.12807e-69
0.5103 	6.54156e-70
0.511 	6.04328e-70
0.5117 	5.23255e-70
0.5124 	4.24825e-70
0.5131 	3.26395e-70
0.5138 	2.27965e-70
0.5145 	1.29535e-70
0.5152 	5.79452e-71
0.5159 	5.33467e-71
0.5166 	4.65121e-71
0.5173 	3.74415e-71
0.518 	2.8371e-71
0.5187 	1.93004e-71
0.5194 	1.02298e-71
0.5201 	2.43002e-72
0.5208 	2.23568e-72
0.5215 	1.97481e-72
0.5222 	1.59421e-72
0.5229 	1.2136e-72
0.5236 	8.32995e-73
0.5243 	4.5239e-73
0.525 	7.19003e-74
0.5257 	6.61026e-74
0.5264 	5.91096e-74
0.5271 	4.77277e-74
0.5278 	3.63457e-74
0.5285 	2.49637e-74
0.5292 	1.35818e-74
0.5299 	2.19981e-75
0.5306 	5.36765e-76
0.5313 	4.86458e-76
0.532 	3.94883e-76
0.5327 	3.03308e-76
0.5334 	2.11732e-76
0.5341 	1.20157e-76
0.5348 	2.85821e-77
0.5355 	2.48117e-78
0.5362 	2.53354e-78
0.5369 	1.70301e-78
0.5376 	8.04562e-79
0.5383 	-9.3885e-80
0.539 	-9.92332e-79
0.5397 	-1.89078e-78
0.5404 	-1.99139e-78
0.5411 	-1.49383e-78
0.5418 	-1.43644e-78
0.5425 	-1.49909e-78
0.5432 	-1.56175e-78
0.5439 	-1.6244e-78
0.5446 	-1.68705e-78
0.5453 	-1.55302e-78
0.546 	-1.15651e-78
0.5467 	-1.02814e-78
0.5474 	-1.04875e-78
0.5481 	-1.06936e-78
0.5488 	-1.08996e-78
0.5495 	-1.11057e-78
0.5502 	-1.04692e-78
0.5509 	-7.72399e-79
0.5516 	-6.37028e-79
0.5523 	-6.40807e-79
0.553 	-6.44587e-79
0.5537 	-6.48366e-79
0.5544 	-6.52146e-79
0.5551 	-6.31097e-79
0.5558 	-4.60736e-79
0.5565 	-3.5141e-79
0.5572 	-3.51949e-79
0.5579 	-3.52488e-79
0.5586 	-3.53028e-79
0.5593 	-3.53567e-79
0.56 	-3.54117e-79
0.5607 	-2.56757e-79
0.5614 	-1.80259e-79
0.5621 	-1.80318e-79
0.5628 	-1.80377e-79
0.5635 	-1.80435e-79
0.5642 	-1.80494e-79
0.5649 	-1.80553e-79
0.5656 	-1.35957e-79
0.5663 	-8.76192e-80
0.567 	-8.76228e-80
0.5677 	-8.76264e-80
0.5684 	-8.76299e-80
0.5691 	-8.76335e-80
0.5698 	-8.76371e-80
0.5705 	-6.88719e-80
0.5712 	-4.25885e-80
0.5719 	-4.0711e-80
0.5726 	-4.07109e-80
0.5733 	-4.07109e-80
0.574 	-4.07108e-80
0.5747 	-4.07107e-80
0.5754 	-3.3501e-80
0.5761 	-2.08778e-80
0.5768 	-1.81726e-80
0.5775 	-1.81723e-80
0.5782 	-1.81719e-80
0.5789 	-1.81716e-80
0.5796 	-1.81713e-80
0.5803 	-1.56879e-80
0.581 	-9.88984e-81
0.5817 	-7.81896e-81
0.5824 	-7.81876e-81
0.5831 	-7.81856e-81
0.5838 	-7.81836e-81
0.5845 	-7.81816e-81
0.5852 	-7.08795e-81
0.5859 	-4.53014e-81
0.5866 	-3.25117e-81
0.5873 	-3.25107e-81
0.588 	-3.25096e-81
0.5887 	-3.25086e-81
0.5894 	-3.25075e-81
0.5901 	-3.09563e-81
0.5908 	-2.00826e-81
0.5915 	-1.30921e-81
0.5922 	-1.30916e-81
0.5929 	-1.30911e-81
0.5936 	-1.30906e-81
0.5943 	-1.309e-81
0.595 	-1.30899e-81
0.5957 	-8.62417e-82
0.5964 	-5.11464e-82
0.5971 	-5.11439e-82
0.5978 	-5.11414e-82
0.5985 	-5.11389e-82
0.5992 	-5.11364e-82
0.5999 	-5.11339e-82
0.6006 	-3.59102e-82
0.6013 	-1.94127e-82
0.602 	-1.94116e-82
0.6027 	-1.94104e-82
0.6034 	-1.94093e-82
0.6041 	-1.94082e-82
0.6048 	-1.94071e-82
0.6055 	-1.45122e-82
0.6062 	-7.65704e-83
0.6069 	-7.16693e-83
0.6076 	-7.16644e-83
0.6083 	-7.16595e-83
0.609 	-7.16546e-83
0.6097 	-7.16497e-83
0.6104 	-5.69716e-83
0.6111 	-3.12758e-83
0.6118 	-2.5768e-83
0.6125 	-2.57659e-83
0.6132 	-2.57639e-83
0.6139 	-2.57619e-83
0.6146 	-2.57598e-83
0.6153 	-2.17461e-83
0.616 	-1.23772e-83
0.6167 	-9.0306e-84
0.6174 	-9.02978e-84
0.6181 	-9.02897e-84
0.6188 	-9.02816e-84
0.6195 	-9.02735e-84
0.6202 	-8.07731e-84
0.6209 	-4.75089e-84
0.6216 	-3.08753e-84
0.6223 	-3.08722e-84
0.623 	-3.08691e-84
0.6237 	-3.08659e-84
0.6244 	-3.08628e-84
0.6251 	-2.92188e-84
0.6258 	-1.77071e-84
0.6265 	-1.03063e-84
0.6272 	-1.03051e-84
0.6279 	-1.0304e-84
0.6286 	-1.03028e-84
0.6293 	-1.03016e-84
0.63 	-1.03008e-84
0.6307 	-6.41506e-85
0.6314 	-3.36129e-85
0.6321 	-3.36087e-85
0.6328 	-3.36045e-85
0.6335 	-3.36003e-85
0.6342 	-3.35961e-85
0.6349 	-3.3592e-85
0.6356 	-2.26142e-85
0.6363 	-1.07182e-85
0.637 	-1.07167e-85
0.6377 	-1.07153e-85
0.6384 	-1.07138e-85
0.6391 	-1.07124e-85
0.6398 	-1.07109e-85
0.6405 	-7.76449e-86
0.6412 	-3.63847e-86
0.6419 	-3.34329e-86
0.6426 	-3.3428e-86
0.6433 	-3.34231e-86
0.644 	-3.34181e-86
0.6447 	-3.34132e-86
0.6454 	-2.59899e-86
0.6461 	-1.29964e-86
0.6468 	-1.02108e-86
0.6475 	-1.02092e-86
0.6482 	-1.02076e-86
0.6489 	-1.0206e-86
0.6496 	-1.02043e-86
0.6503 	-8.48866e-87
0.651 	-4.48499e-87
0.6517 	-3.05477e-87
0.6524 	-3.05425e-87
0.6531 	-3.05373e-87
0.6538 	-3.05321e-87
0.6545 	-3.05269e-87
0.6552 	-2.70755e-87
0.6559 	-1.49968e-87
0.6566 	-8.95665e-88
0.6573 	-8.95503e-88
0.658 	-8.9534e-88
0.6587 	-8.95178e-88
0.6594 	-8.95015e-88
0.6601 	-8.43973e-88
0.6608 	-4.86954e-88
0.6615 	-2.57424e-88
0.6622 	-2.57374e-88
0.6629 	-2.57325e-88
0.6636 	-2.57276e-88
0.6643 	-2.57226e-88
0.665 	-2.57184e-88
0.6657 	-1.53752e-88
0.6664 	-7.24638e-89
0.6671 	-7.24492e-89
0.6678 	-7.24346e-89
0.6685 	-7.242e-89
0.6692 	-7.24054e-89
0.6699 	-7.23908e-89
0.6706 	-4.71963e-89
0.6713 	-1.98953e-89
0.672 	-1.98911e-89
0.6727 	-1.98869e-89
0.6734 	-1.98827e-89
0.6741 	-1.98785e-89
0.6748 	-1.98743e-89
0.6755 	-1.40284e-89
0.6762 	-5.84274e-90
0.6769 	-5.25697e-90
0.6776 	-5.2558e-90
0.6783 	-5.25463e-90
0.679 	-5.25346e-90
0.6797 	-5.25229e-90
0.6804 	-3.98583e-90
0.6811 	-1.76932e-90
0.6818 	-1.29411e-90
0.6825 	-1.2938e-90
0.6832 	-1.29349e-90
0.6839 	-1.29318e-90
0.6846 	-1.29287e-90
0.6853 	-1.049e-90
0.686 	-4.80012e-91
0.6867 	-2.76754e-91
0.6874 	-2.76677e-91
0.6881 	-2.766e-91
0.6888 	-2.76523e-91
0.6895 	-2.76446e-91
0.6902 	-2.39373e-91
0.6909 	-1.0968e-91
0.6916 	-4.48259e-92
0.6923 	-4.48094e-92
0.693 	-4.4793e-92
0.6937 	-4.47766e-92
0.6944 	-4.47601e-92
0.6951 	-4.1174e-92
0.6958 	-1.6121e-92
0.6965 	-1.45064e-95
0.6972 	-1.18935e-95
0.6979 	-9.28071e-96
0.6986 	-6.66787e-96
0.6993 	-4.05503e-96
0.7 	-1.44292e-96
