0 	1
0.0007 	1
0.0014 	1
0.0021 	1
0.0028 	1
0.0035 	1
0.0042 	1
0.0049 	1
0.0056 	1
0.0063 	1
0.007 	1
0.0077 	1
0.0084 	1
0.0091 	1
0.0098 	1
0.0105 	1
0.0112 	1
0.0119 	1
0.0126 	1
0.0133 	1
0.014 	1
0.0147 	1
0.0154 	1
0.0161 	1
0.0168 	1
0.0175 	1
0.0182 	1
0.0189 	1
0.0196 	1
0.0203 	1
0.021 	1
0.0217 	1
0.0224 	1
0.0231 	1
0.0238 	1
0.0245 	1
0.0252 	1
0.0259 	1
0.0266 	1
0.0273 	1
0.028 	1
0.0287 	1
0.0294 	1
0.0301 	1
0.0308 	1
0.0315 	1
0.0322 	1
0.0329 	1
0.0336 	1
0.0343 	1
0.035 	1
0.0357 	1
0.0364 	1
0.0371 	1
0.0378 	1
0.0385 	1
0.0392 	1
0.0399 	1
0.0406 	1
0.0413 	1
0.042 	1
0.0427 	1
0.0434 	1
0.0441 	1
0.0448 	1
0.0455 	1
0.0462 	1
0.0469 	1
0.0476 	1
0.0483 	1
0.049 	1
0.0497 	1
0.0504 	1
0.0511 	1
0.0518 	1
0.0525 	1
0.0532 	1
0.0539 	1
0.0546 	1
0.0553 	1
0.056 	1
0.0567 	1
0.0574 	1
0.0581 	1
0.0588 	1
0.0595 	1
0.0602 	1
0.0609 	1
0.0616 	1
0.0623 	1
0.063 	1
0.0637 	1
0.0644 	1
0.0651 	1
0.0658 	1
0.0665 	1
0.0672 	1
0.0679 	1
0.0686 	1
0.0693 	1
0.07 	1
0.0707 	1
0.0714 	1
0.0721 	1
0.0728 	1
0.0735 	1
0.0742 	1
0.0749 	1
0.0756 	1
0.0763 	1
0.077 	1
0.0777 	1
0.0784 	1
0.0791 	1
0.0798 	1
0.0805 	1
0.0812 	1
0.0819 	1
0.0826 	1
0.0833 	1
0.084 	1
0.0847 	1
0.0854 	1
0.0861 	1
0.0868 	1
0.0875 	1
0.0882 	1
0.0889 	1
0.0896 	1
0.0903 	1
0.091 	1
0.0917 	1
0.0924 	1
0.0931 	1
0.0938 	1
0.0945 	1
0.0952 	1
0.0959 	1
0.0966 	1
0.0973 	1
0.098 	1
0.0987 	1
0.0994 	1
0.1001 	1
0.1008 	1
0.1015 	1
0.1022 	1
0.1029 	1
0.1036 	1
0.1043 	1
0.105 	1
0.1057 	1
0.1064 	1
0.1071 	1
0.1078 	1
0.1085 	1
0.1092 	1
0.1099 	1
0.1106 	1
0.1113 	1
0.112 	1
0.1127 	1
0.1134 	1
0.1141 	1
0.1148 	1
0.1155 	1
0.1162 	1
0.1169 	1
0.1176 	1
0.1183 	1
0.119 	1
0.1197 	1
0.1204 	1
0.1211 	1
0.1218 	1
0.1225 	1
0.1232 	1
0.1239 	1
0.1246 	1
0.1253 	1
0.126 	1
0.1267 	1
0.1274 	1
0.1281 	1
0.1288 	1
0.1295 	1
0.1302 	1
0.1309 	1
0.1316 	1
0.1323 	1
0.133 	1
0.1337 	1
0.1344 	1
0.1351 	1
0.1358 	1
0.1365 	1
0.1372 	1
0.1379 	1
0.1386 	1
0.1393 	1
0.14 	1
0.1407 	1
0.1414 	1
0.1421 	1
0.1428 	1
0.1435 	1
0.1442 	1
0.1449 	1
0.1456 	1
0.1463 	1
0.147 	1
0.1477 	1
0.1484 	1
0.1491 	1
0.1498 	1
0.1505 	1
0.1512 	1
0.1519 	1
0.1526 	1
0.1533 	1
0.154 	1
0.1547 	1
0.1554 	1
0.1561 	1
0.1568 	1
0.1575 	1
0.1582 	1
0.1589 	1
0.1596 	1
0.1603 	1
0.161 	1
0.1617 	1
0.1624 	1
0.1631 	1
0.1638 	1
0.1645 	1
0.1652 	1
0.1659 	1
0.1666 	1
0.1673 	1
0.168 	1
0.1687 	1
0.1694 	1
0.1701 	1
0.1708 	1
0.1715 	1
0.1722 	1
0.1729 	1
0.1736 	1
0.1743 	1
0.175 	1
0.1757 	1
0.1764 	1
0.1771 	1
0.1778 	1
0.1785 	1
0.1792 	1
0.1799 	1
0.1806 	1
0.1813 	1
0.182 	1
0.1827 	1
0.1834 	1
0.1841 	1
0.1848 	1
0.1855 	1
0.1862 	1
0.1869 	1
0.1876 	1
0.1883 	1
0.189 	1
0.1897 	1
0.1904 	1
0.1911 	1
0.1918 	1
0.1925 	1
0.1932 	1
0.1939 	1
0.1946 	1
0.1953 	1
0.196 	1
0.1967 	1
0.1974 	1
0.1981 	1
0.1988 	1
0.1995 	1
0.2002 	1
0.2009 	1
0.2016 	1
0.2023 	1
0.203 	1
0.2037 	1
0.2044 	1
0.2051 	1
0.2058 	1
0.2065 	1
0.2072 	1
0.2079 	1
0.2086 	1
0.2093 	1
0.21 	1
0.2107 	1
0.2114 	1
0.2121 	1
0.2128 	1
0.2135 	1
0.2142 	1
0.2149 	1
0.2156 	1
0.2163 	1
0.217 	1
0.2177 	1
0.2184 	1
0.2191 	1
0.2198 	1
0.2205 	1
0.2212 	1
0.2219 	1
0.2226 	1
0.2233 	1
0.224 	1
0.2247 	1
0.2254 	1
0.2261 	1
0.2268 	1
0.2275 	1
0.2282 	1
0.2289 	1
0.2296 	1
0.2303 	1
0.231 	1
0.2317 	1
0.2324 	1
0.2331 	1
0.2338 	1
0.2345 	1
0.2352 	1
0.2359 	1
0.2366 	1
0.2373 	1
0.238 	1
0.2387 	1
0.2394 	1
0.2401 	1
0.2408 	1
0.2415 	1
0.2422 	1
0.2429 	1
0.2436 	1
0.2443 	1
0.245 	1
0.2457 	0.999992
0.2464 	0.999985
0.2471 	0.999977
0.2478 	0.99997
0.2485 	0.999962
0.2492 	0.999955
0.2499 	0.999947
0.2506 	0.999219
0.2513 	0.998371
0.252 	0.997522
0.2527 	0.996674
0.2534 	0.995826
0.2541 	0.994978
0.2548 	0.99413
0.2555 	0.983043
0.2562 	0.96786
0.2569 	0.952677
0.2576 	0.937495
0.2583 	0.922313
0.259 	0.907131
0.2597 	0.891948
0.2604 	0.853119
0.2611 	0.796552
0.2618 	0.739985
0.2625 	0.683419
0.2632 	0.626852
0.2639 	0.570286
0.2646 	0.51372
0.2653 	0.458102
0.266 	0.403763
0.2667 	0.349423
0.2674 	0.295082
0.2681 	0.240741
0.2688 	0.186401
0.2695 	0.13206
0.2702 	0.0896562
0.2709 	0.0770928
0.2716 	0.0645287
0.2723 	0.051964
0.273 	0.0393993
0.2737 	0.0268346
0.2744 	0.0142698
0.2751 	0.00343411
0.2758 	0.00296569
0.2765 	0.00249725
0.2772 	0.00202877
0.2779 	0.00156029
0.2786 	0.00109181
0.2793 	0.000623323
0.28 	0.000154879
0.2807 	0.000134228
0.2814 	0.00011358
0.2821 	9.29281e-05
0.2828 	7.22766e-05
0.2835 	5.16252e-05
0.2842 	3.09737e-05
0.2849 	1.03223e-05
0.2856 	6.52783e-06
0.2863 	5.54107e-06
0.287 	4.55411e-06
0.2877 	3.56716e-06
0.2884 	2.5802e-06
0.2891 	1.59324e-06
0.2898 	6.06287e-07
0.2905 	2.93236e-07
0.2912 	2.49641e-07
0.2919 	2.06037e-07
0.2926 	1.62431e-07
0.2933 	1.18826e-07
0.294 	7.52214e-08
0.2947 	3.16164e-08
0.2954 	1.19307e-08
0.2961 	1.01783e-08
0.2968 	8.4258e-09
0.2975 	6.67325e-09
0.2982 	4.9207e-09
0.2989 	3.16816e-09
0.2996 	1.41561e-09
0.3003 	3.90411e-10
0.301 	3.34673e-10
0.3017 	2.78941e-10
0.3024 	2.23213e-10
0.3031 	1.67485e-10
0.3038 	1.11757e-10
0.3045 	5.60285e-11
0.3052 	1.59904e-11
0.3059 	1.51599e-11
0.3066 	1.43299e-11
0.3073 	1.35004e-11
0.308 	1.26709e-11
0.3087 	1.18413e-11
0.3094 	1.10118e-11
0.3101 	1.02698e-11
0.3108 	1.00522e-11
0.3115 	9.83474e-12
0.3122 	9.61752e-12
0.3129 	9.4003e-12
0.3136 	9.18308e-12
0.3143 	8.96586e-12
0.315 	8.74861e-12
0.3157 	8.23461e-12
0.3164 	7.72063e-12
0.3171 	7.20672e-12
0.3178 	6.69281e-12
0.3185 	6.17891e-12
0.3192 	5.665e-12
0.3199 	5.1511e-12
0.3206 	4.72959e-12
0.3213 	4.3235e-12
0.322 	3.91717e-12
0.3227 	3.51084e-12
0.3234 	3.10451e-12
0.3241 	2.69818e-12
0.3248 	2.29185e-12
0.3255 	2.0383e-12
0.3262 	1.84586e-12
0.3269 	1.65321e-12
0.3276 	1.46054e-12
0.3283 	1.26787e-12
0.329 	1.07519e-12
0.3297 	8.82522e-13
0.3304 	7.5492e-13
0.3311 	6.76118e-13
0.3318 	5.97202e-13
0.3325 	5.18255e-13
0.3332 	4.39308e-13
0.3339 	3.60361e-13
0.3346 	2.81414e-13
0.3353 	2.25285e-13
0.336 	1.99576e-13
0.3367 	1.73826e-13
0.3374 	1.48053e-13
0.3381 	1.22279e-13
0.3388 	9.65057e-14
0.3395 	7.07323e-14
0.3402 	5.05702e-14
0.3409 	4.44336e-14
0.3416 	3.82869e-14
0.3423 	3.213e-14
0.343 	2.59731e-14
0.3437 	1.98162e-14
0.3444 	1.36593e-14
0.3451 	8.2332e-15
0.3458 	7.18994e-15
0.3465 	6.14508e-15
0.3472 	5.09733e-15
0.3479 	4.04958e-15
0.3486 	3.00184e-15
0.3493 	1.95409e-15
0.35 	9.06428e-16
0.3507 	7.88188e-16
0.3514 	6.69825e-16
0.3521 	5.50944e-16
0.3528 	4.32063e-16
0.3535 	3.13182e-16
0.3542 	1.943e-16
0.3549 	7.5419e-17
0.3556 	5.16872e-17
0.3563 	4.37981e-17
0.357 	3.58549e-17
0.3577 	2.79117e-17
0.3584 	1.99684e-17
0.3591 	1.20252e-17
0.3598 	4.08197e-18
0.3605 	1.6368e-18
0.3612 	1.38978e-18
0.3619 	1.14038e-18
0.3626 	8.90791e-19
0.3633 	6.41206e-19
0.364 	3.91621e-19
0.3647 	1.42037e-19
0.3654 	3.25349e-20
0.3661 	2.80496e-20
0.3668 	2.35195e-20
0.3675 	1.89772e-20
0.3682 	1.44349e-20
0.3689 	9.89256e-21
0.3696 	5.35025e-21
0.3703 	2.60476e-21
0.371 	2.25418e-21
0.3717 	1.90095e-21
0.3724 	1.54625e-21
0.3731 	1.19156e-21
0.3738 	8.36863e-22
0.3745 	4.82168e-22
0.3752 	2.20126e-22
0.3759 	1.89626e-22
0.3766 	1.58926e-22
0.3773 	1.28025e-22
0.378 	9.7124e-23
0.3787 	6.62231e-23
0.3794 	3.53222e-23
0.3801 	8.66606e-24
0.3808 	7.45818e-24
0.3815 	6.24378e-24
0.3822 	5.01765e-24
0.3829 	3.79153e-24
0.3836 	2.5654e-24
0.3843 	1.33927e-24
0.385 	1.13274e-25
0.3857 	9.76617e-26
0.3864 	8.19917e-26
0.3871 	6.60952e-26
0.3878 	5.01988e-26
0.3885 	3.43024e-26
0.3892 	1.84059e-26
0.3899 	2.50948e-27
0.3906 	2.12043e-28
0.3913 	1.7892e-28
0.392 	1.45078e-28
0.3927 	1.11237e-28
0.3934 	7.73954e-29
0.3941 	4.3554e-29
0.3948 	9.71262e-30
0.3955 	4.29505e-32
0.3962 	3.64298e-32
0.3969 	2.97307e-32
0.3976 	2.30178e-32
0.3983 	1.6305e-32
0.399 	9.59218e-33
0.3997 	2.87935e-33
0.4004 	2.96135e-36
0.4011 	2.52386e-36
0.4018 	2.0744e-36
0.4025 	1.62167e-36
0.4032 	1.16895e-36
0.4039 	7.16222e-37
0.4046 	2.63496e-37
0.4053 	4.57109e-39
0.406 	3.92215e-39
0.4067 	3.24969e-39
0.4074 	2.56417e-39
0.4081 	1.87864e-39
0.4088 	1.19312e-39
0.4095 	5.076e-40
0.4102 	1.7335e-41
0.4109 	1.49311e-41
0.4116 	1.24498e-41
0.4123 	9.89119e-42
0.413 	7.33255e-42
0.4137 	4.77391e-42
0.4144 	2.21527e-42
0.4151 	2.203e-44
0.4158 	1.90408e-44
0.4165 	1.59781e-44
0.4172 	1.27833e-44
0.4179 	9.58842e-45
0.4186 	6.39357e-45
0.4193 	3.19872e-45
0.42 	4.25477e-48
0.4207 	3.68901e-48
0.4214 	3.11483e-48
0.4221 	2.50922e-48
0.4228 	1.90361e-48
0.4235 	1.29801e-48
0.4242 	6.92397e-49
0.4249 	8.67879e-50
0.4256 	3.06716e-52
0.4263 	2.60369e-52
0.427 	2.11114e-52
0.4277 	1.61859e-52
0.4284 	1.12604e-52
0.4291 	6.33488e-53
0.4298 	1.40937e-53
0.4305 	2.43299e-56
0.4312 	2.07409e-56
0.4319 	1.69341e-56
0.4326 	1.31106e-56
0.4333 	9.28713e-57
0.434 	5.46364e-57
0.4347 	1.64015e-57
0.4354 	1.83233e-60
0.4361 	1.56717e-60
0.4368 	1.28885e-60
0.4375 	1.00694e-60
0.4382 	7.25023e-61
0.4389 	4.43109e-61
0.4396 	1.61196e-61
0.4403 	1.30291e-64
0.441 	1.11794e-64
0.4417 	9.25666e-65
0.4424 	7.29327e-65
0.4431 	5.32987e-65
0.4438 	3.36648e-65
0.4445 	1.40309e-65
0.4452 	8.75924e-69
0.4459 	7.53903e-69
0.4466 	6.28226e-69
0.4473 	4.98894e-69
0.448 	3.69562e-69
0.4487 	2.40229e-69
0.4494 	1.10897e-69
0.4501 	5.59819e-73
0.4508 	4.83275e-73
0.4515 	4.05132e-73
0.4522 	3.24111e-73
0.4529 	2.43089e-73
0.4536 	1.62067e-73
0.4543 	8.10456e-74
0.455 	3.41382e-77
0.4557 	2.95543e-77
0.4564 	2.49157e-77
0.4571 	2.00712e-77
0.4578 	1.52268e-77
0.4585 	1.03823e-77
0.4592 	5.53786e-78
0.4599 	6.93406e-79
0.4606 	1.7329e-81
0.4613 	1.46871e-81
0.462 	1.19086e-81
0.4627 	9.13007e-82
0.4634 	6.35157e-82
0.4641 	3.57307e-82
0.4648 	7.94578e-83
0.4655 	9.748e-86
0.4662 	8.29783e-86
0.4669 	6.77397e-86
0.4676 	5.24445e-86
0.4683 	3.71493e-86
0.469 	2.18541e-86
0.4697 	6.55884e-87
0.4704 	5.27851e-90
0.4711 	4.5089e-90
0.4718 	3.70689e-90
0.4725 	2.89605e-90
0.4732 	2.0852e-90
0.4739 	1.27436e-90
0.4746 	4.63511e-91
0.4753 	2.5779e-94
0.476 	2.16962e-94
0.4767 	1.75761e-94
0.4774 	1.34352e-94
0.4781 	9.29429e-95
0.4788 	5.15338e-95
0.4795 	1.01248e-95
0.4802 	-1.97957e-95
0.4809 	-2.10141e-95
0.4816 	-2.16244e-95
0.4823 	-2.16267e-95
0.483 	-2.1629e-95
0.4837 	-2.16313e-95
0.4844 	-2.16335e-95
0.4851 	-2.1618e-95
0.4858 	-2.14954e-95
0.4865 	-2.14167e-95
0.4872 	-2.14169e-95
0.4879 	-2.1417e-95
0.4886 	-2.14172e-95
0.4893 	-2.14174e-95
0.49 	-2.14177e-95
0.4907 	-2.02815e-95
0.4914 	-1.93888e-95
0.4921 	-1.93888e-95
0.4928 	-1.93887e-95
0.4935 	-1.93887e-95
0.4942 	-1.93887e-95
0.4949 	-1.93886e-95
0.4956 	-1.7886e-95
0.4963 	-1.62579e-95
0.497 	-1.62577e-95
0.4977 	-1.62575e-95
0.4984 	-1.62573e-95
0.4991 	-1.62571e-95
0.4998 	-1.62569e-95
0.5005 	-1.48401e-95
0.5012 	-1.28562e-95
0.5019 	-1.27142e-95
0.5026 	-1.27139e-95
0.5033 	-1.27137e-95
0.504 	-1.27134e-95
0.5047 	-1.27131e-95
0.5054 	-1.16267e-95
0.5061 	-9.72535e-96
0.5068 	-9.31767e-96
0.5075 	-9.31735e-96
0.5082 	-9.31704e-96
0.5089 	-9.31673e-96
0.5096 	-9.31641e-96
0.5103 	-8.62216e-96
0.511 	-7.00216e-96
0.5117 	-6.4234e-96
0.5124 	-6.4231e-96
0.5131 	-6.42281e-96
0.5138 	-6.42252e-96
0.5145 	-6.42222e-96
0.5152 	-6.06332e-96
0.5159 	-4.8073e-96
0.5166 	-4.17916e-96
0.5173 	-4.17892e-96
0.518 	-4.17867e-96
0.5187 	-4.17842e-96
0.5194 	-4.17818e-96
0.5201 	-4.04974e-96
0.5208 	-3.15131e-96
0.5215 	-2.57368e-96
0.5222 	-2.57349e-96
0.5229 	-2.5733e-96
0.5236 	-2.57311e-96
0.5243 	-2.57293e-96
0.525 	-2.57276e-96
0.5257 	-1.97443e-96
0.5264 	-1.50424e-96
0.5271 	-1.50411e-96
0.5278 	-1.50398e-96
0.5285 	-1.50385e-96
0.5292 	-1.50372e-96
0.5299 	-1.50359e-96
0.5306 	-1.18339e-96
0.5313 	-8.36465e-97
0.532 	-8.36379e-97
0.5327 	-8.36293e-97
0.5334 	-8.36207e-97
0.5341 	-8.36121e-97
0.5348 	-8.36035e-97
0.5355 	-6.79038e-97
0.5362 	-4.59233e-97
0.5369 	-4.43484e-97
0.5376 	-4.43431e-97
0.5383 	-4.43379e-97
0.539 	-4.43326e-97
0.5397 	-4.43274e-97
0.5404 	-3.73338e-97
0.5411 	-2.50961e-97
0.5418 	-2.24713e-97
0.5425 	-2.24683e-97
0.5432 	-2.24652e-97
0.5439 	-2.24622e-97
0.5446 	-2.24592e-97
0.5453 	-1.96851e-97
0.546 	-1.32142e-97
0.5467 	-1.09022e-97
0.5474 	-1.09005e-97
0.5481 	-1.08988e-97
0.5488 	-1.08972e-97
0.5495 	-1.08955e-97
0.5502 	-9.96353e-98
0.5509 	-6.70409e-98
0.5516 	-5.07394e-98
0.5523 	-5.07308e-98
0.553 	-5.07222e-98
0.5537 	-5.07137e-98
0.5544 	-5.07051e-98
0.5551 	-4.84594e-98
0.5558 	-3.27763e-98
0.5565 	-2.26928e-98
0.5572 	-2.26886e-98
0.5579 	-2.26843e-98
0.5586 	-2.26801e-98
0.5593 	-2.26759e-98
0.56 	-2.26719e-98
0.5607 	-1.54471e-98
0.5614 	-9.76941e-99
0.5621 	-9.76742e-99
0.5628 	-9.76543e-99
0.5635 	-9.76344e-99
0.5642 	-9.76145e-99
0.5649 	-9.75946e-99
0.5656 	-7.02136e-99
0.5663 	-4.05485e-99
0.567 	-4.05396e-99
0.5677 	-4.05306e-99
0.5684 	-4.05216e-99
0.5691 	-4.05127e-99
0.5698 	-4.05037e-99
0.5705 	-3.08016e-99
0.5712 	-1.72197e-99
0.5719 	-1.6246e-99
0.5726 	-1.62421e-99
0.5733 	-1.62382e-99
0.574 	-1.62343e-99
0.5747 	-1.62305e-99
0.5754 	-1.3051e-99
0.5761 	-7.48844e-100
0.5768 	-6.2952e-100
0.5775 	-6.2936e-100
0.5782 	-6.29199e-100
0.5789 	-6.29038e-100
0.5796 	-6.28877e-100
0.5803 	-5.34594e-100
0.581 	-3.14743e-100
0.5817 	-2.36183e-100
0.5824 	-2.36119e-100
0.5831 	-2.36055e-100
0.5838 	-2.35991e-100
0.5845 	-2.35926e-100
0.5852 	-2.11896e-100
0.5859 	-1.27911e-100
0.5866 	-8.59059e-101
0.5873 	-8.58811e-101
0.588 	-8.58564e-101
0.5887 	-8.58316e-101
0.5894 	-8.58068e-101
0.5901 	-8.13534e-101
0.5908 	-5.02978e-101
0.5915 	-3.03302e-101
0.5922 	-3.0321e-101
0.5929 	-3.03117e-101
0.5936 	-3.03025e-101
0.5943 	-3.02933e-101
0.595 	-3.02844e-101
0.5957 	-1.91535e-101
0.5964 	-1.04061e-101
0.5971 	-1.04028e-101
0.5978 	-1.03995e-101
0.5985 	-1.03962e-101
0.5992 	-1.03928e-101
0.5999 	-1.03895e-101
0.6006 	-7.0698e-102
0.6013 	-3.47328e-102
0.602 	-3.47212e-102
0.6027 	-3.47096e-102
0.6034 	-3.4698e-102
0.6041 	-3.46864e-102
0.6048 	-3.46748e-102
0.6055 	-2.53199e-102
0.6062 	-1.22251e-102
0.6069 	-1.12861e-102
0.6076 	-1.12822e-102
0.6083 	-1.12783e-102
0.609 	-1.12743e-102
0.6097 	-1.12704e-102
0.6104 	-8.80783e-103
0.6111 	-4.5002e-103
0.6118 	-3.57612e-103
0.6125 	-3.57483e-103
0.6132 	-3.57354e-103
0.6139 	-3.57225e-103
0.6146 	-3.57096e-103
0.6153 	-2.97892e-103
0.616 	-1.59874e-103
0.6167 	-1.10555e-103
0.6174 	-1.10514e-103
0.6181 	-1.10473e-103
0.6188 	-1.10432e-103
0.6195 	-1.1039e-103
0.6202 	-9.80494e-104
0.6209 	-5.49379e-104
0.6216 	-3.33758e-104
0.6223 	-3.33629e-104
0.623 	-3.33501e-104
0.6237 	-3.33372e-104
0.6244 	-3.33244e-104
0.6251 	-3.14379e-104
0.6258 	-1.82969e-104
0.6265 	-9.84768e-105
0.6272 	-9.84378e-105
0.6279 	-9.83988e-105
0.6286 	-9.83598e-105
0.6293 	-9.83207e-105
0.63 	-9.82828e-105
0.6307 	-5.9162e-105
0.6314 	-2.84182e-105
0.6321 	-2.84067e-105
0.6328 	-2.83951e-105
0.6335 	-2.83836e-105
0.6342 	-2.8372e-105
0.6349 	-2.83605e-105
0.6356 	-1.86001e-105
0.6363 	-8.02619e-106
0.637 	-8.02285e-106
0.6377 	-8.01951e-106
0.6384 	-8.01617e-106
0.6391 	-8.01283e-106
0.6398 	-8.00948e-106
0.6405 	-5.69336e-106
0.6412 	-2.45148e-106
0.6419 	-2.21904e-106
0.6426 	-2.2181e-106
0.6433 	-2.21716e-106
0.644 	-2.21621e-106
0.6447 	-2.21527e-106
0.6454 	-1.69872e-106
0.6461 	-7.95252e-107
0.6468 	-6.01446e-107
0.6475 	-6.01185e-107
0.6482 	-6.00924e-107
0.6489 	-6.00663e-107
0.6496 	-6.00402e-107
0.6503 	-4.9459e-107
0.651 	-2.47963e-107
0.6517 	-1.59836e-107
0.6524 	-1.59765e-107
0.6531 	-1.59694e-107
0.6538 	-1.59624e-107
0.6545 	-1.59553e-107
0.6552 	-1.40659e-107
0.6559 	-7.46719e-108
0.6566 	-4.16692e-108
0.6573 	-4.16504e-108
0.658 	-4.16317e-108
0.6587 	-4.16129e-108
0.6594 	-4.15942e-108
0.6601 	-3.91072e-108
0.6608 	-2.17933e-108
0.6615 	-1.06613e-108
0.6622 	-1.06564e-108
0.6629 	-1.06515e-108
0.6636 	-1.06466e-108
0.6643 	-1.06418e-108
0.665 	-1.0637e-108
0.6657 	-6.18048e-109
0.6664 	-2.67826e-109
0.6671 	-2.67701e-109
0.6678 	-2.67577e-109
0.6685 	-2.67453e-109
0.6692 	-2.67328e-109
0.6699 	-2.67204e-109
0.6706 	-1.7067e-109
0.6713 	-6.60906e-110
0.672 	-6.60595e-110
0.6727 	-6.60284e-110
0.6734 	-6.59973e-110
0.6741 	-6.59662e-110
0.6748 	-6.5935e-110
0.6755 	-4.59684e-110
0.6762 	-1.80218e-110
0.6769 	-1.60185e-110
0.6776 	-1.60109e-110
0.6783 	-1.60032e-110
0.679 	-1.59956e-110
0.6797 	-1.5988e-110
0.6804 	-1.20914e-110
0.6811 	-5.27642e-111
0.6818 	-3.81462e-111
0.6825 	-3.81277e-111
0.6832 	-3.81092e-111
0.6839 	-3.80908e-111
0.6846 	-3.80723e-111
0.6853 	-3.1051e-111
0.686 	-1.46871e-111
0.6867 	-8.84006e-112
0.6874 	-8.83566e-112
0.6881 	-8.83127e-112
0.6888 	-8.82688e-112
0.6895 	-8.82248e-112
0.6902 	-7.7089e-112
0.6909 	-3.8204e-112
0.6916 	-1.87564e-112
0.6923 	-1.8746e-112
0.693 	-1.87357e-112
0.6937 	-1.87253e-112
0.6944 	-1.8715e-112
0.6951 	-1.72122e-112
0.6958 	-6.7442e-113
0.6965 	-1.39505e-115
0.6972 	-1.16525e-115
0.6979 	-9.35462e-116
0.6986 	-7.0567e-116
0.6993 	-4.75878e-116
0.7 	-2.4612e-116
