0 	1
0.0007 	1
0.0014 	1
0.0021 	1
0.0028 	1
0.0035 	1
0.0042 	1
0.0049 	1
0.0056 	1
0.0063 	1
0.007 	1
0.0077 	1
0.0084 	1
0.0091 	1
0.0098 	1
0.0105 	1
0.0112 	1
0.0119 	1
0.0126 	1
0.0133 	1
0.014 	1
0.0147 	1
0.0154 	1
0.0161 	1
0.0168 	1
0.0175 	1
0.0182 	1
0.0189 	1
0.0196 	1
0.0203 	1
0.021 	1
0.0217 	1
0.0224 	1
0.0231 	1
0.0238 	1
0.0245 	1
0.0252 	1
0.0259 	1
0.0266 	1
0.0273 	1
0.028 	1
0.0287 	1
0.0294 	1
0.0301 	1
0.0308 	1
0.0315 	1
0.0322 	1
0.0329 	1
0.0336 	1
0.0343 	1
0.035 	1
0.0357 	1
0.0364 	1
0.0378 	1
0.0385 	1
0.0392 	1
0.0399 	1
0.0406 	1
0.0413 	1
0.042 	1
0.0427 	1
0.0434 	1
0.0441 	1
0.0448 	1
0.0455 	1
0.0462 	1
0.0469 	1
0.0476 	1
0.0483 	1
0.049 	1
0.0497 	1
0.0504 	1
0.0511 	1
0.0525 	1
0.0532 	1
0.0539 	1
0.0546 	1
0.0553 	1
0.0567 	1
0.0574 	1
0.0581 	1
0.0588 	1
0.0595 	1
0.0602 	1
0.0609 	1
0.0616 	1
0.063 	1
0.0637 	1
0.0644 	1
0.0651 	1
0.0658 	1
0.0665 	1
0.0672 	1
0.0679 	1
0.0686 	1
0.0693 	1
0.07 	1
0.0707 	1
0.0714 	1
0.0721 	1
0.0728 	1
0.0735 	1
0.0742 	1
0.0749 	1
0.0756 	1
0.0763 	1
0.077 	1
0.0777 	1
0.0784 	1
0.0791 	1
0.0798 	1
0.0805 	1
0.0812 	1
0.0819 	1
0.0826 	1
0.0833 	1
0.084 	1
0.0854 	1
0.0861 	1
0.0868 	1
0.0875 	1
0.0882 	1
0.0889 	1
0.0896 	1
0.0903 	1
0.0917 	1
0.0924 	1
0.0931 	1
0.0938 	1
0.0945 	1
0.0952 	1
0.0959 	1
0.0966 	1
0.098 	1
0.0987 	1
0.0994 	1
0.1001 	1
0.1008 	1
0.1015 	1
0.1022 	1
0.1029 	1
0.1036 	1
0.1043 	1
0.105 	1
0.1057 	1
0.1064 	1
0.1071 	1
0.1078 	1
0.1092 	1
0.1099 	1
0.1106 	1
0.1113 	1
0.112 	1
0.1127 	1
0.1134 	1
0.1141 	1
0.1148 	1
0.1155 	1
0.1162 	1
0.1169 	1
0.1176 	1
0.1183 	1
0.119 	1
0.1197 	1
0.1204 	1
0.1211 	1
0.1218 	1
0.1232 	1
0.1239 	1
0.1246 	1
0.1253 	1
0.126 	1
0.1267 	1
0.1274 	1
0.1281 	1
0.1288 	1
0.1295 	1
0.1302 	1
0.1309 	1
0.1316 	1
0.1323 	1
0.133 	1
0.1337 	1
0.1344 	1
0.1351 	1
0.1358 	1
0.1365 	1
0.1372 	1
0.1379 	1
0.1386 	1
0.1393 	1
0.14 	1
0.1407 	1
0.1414 	1
0.1421 	1
0.1428 	1
0.1435 	1
0.1442 	1
0.1449 	1
0.1456 	1
0.1463 	1
0.147 	1
0.1477 	1
0.1484 	1
0.1491 	1
0.1498 	1
0.1505 	1
0.1512 	1
0.1519 	1
0.1533 	1
0.154 	1
0.1547 	1
0.1554 	1
0.1561 	1
0.1568 	1
0.1575 	1
0.1582 	1
0.1589 	1
0.1596 	1
0.1603 	1
0.161 	1
0.1617 	1
0.1624 	1
0.1631 	1
0.1638 	1
0.1645 	1
0.1652 	1
0.1659 	1
0.1666 	1
0.1673 	1
0.168 	1
0.1687 	1
0.1694 	1
0.1701 	1
0.1708 	1
0.1715 	1
0.1722 	1
0.1736 	1
0.1743 	1
0.175 	1
0.1757 	1
0.1764 	1
0.1771 	1
0.1778 	1
0.1785 	1
0.1792 	1
0.1799 	1
0.1806 	1
0.1813 	1
0.182 	1
0.1827 	1
0.1834 	1
0.1841 	1
0.1848 	1
0.1855 	1
0.1862 	1
0.1869 	1
0.1876 	1
0.1883 	1
0.189 	1
0.1897 	1
0.1904 	1
0.1911 	1
0.1918 	1
0.1925 	1
0.1932 	1
0.1939 	1
0.1946 	1
0.1953 	1
0.1967 	1
0.1974 	1
0.1981 	1
0.1988 	1
0.1995 	1
0.2002 	1
0.2009 	1
0.2016 	1
0.2023 	1
0.203 	1
0.2037 	1
0.2044 	1
0.2051 	1
0.2058 	1
0.2065 	1
0.2072 	1
0.2079 	1
0.2086 	1
0.2093 	1
0.21 	1
0.2107 	1
0.2114 	1
0.2121 	0.999999
0.2128 	0.999999
0.2135 	0.999999
0.2142 	0.999999
0.2149 	0.999998
0.2156 	0.99999
0.217 	0.999969
0.2177 	0.999959
0.2184 	0.999949
0.2191 	0.999939
0.2198 	0.999929
0.2205 	0.999793
0.2212 	0.999607
0.2219 	0.99942
0.2226 	0.999234
0.2233 	0.999047
0.224 	0.998861
0.2247 	0.998674
0.2254 	0.995387
0.2261 	0.989774
0.2268 	0.984161
0.2275 	0.978549
0.2282 	0.972936
0.2289 	0.967324
0.2296 	0.961712
0.2303 	0.938883
0.231 	0.8931
0.2317 	0.847318
0.2324 	0.801536
0.2331 	0.755755
0.2338 	0.709973
0.2345 	0.664192
0.2352 	0.613574
0.2359 	0.550865
0.2366 	0.488156
0.2373 	0.425447
0.238 	0.362737
0.2387 	0.300028
0.2394 	0.237319
0.2401 	0.180137
0.2408 	0.156118
0.2415 	0.132099
0.2422 	0.108078
0.2429 	0.084058
0.2436 	0.0600377
0.2443 	0.0360173
0.245 	0.011997
0.2457 	0.0103291
0.2464 	0.0086611
0.2471 	0.00699296
0.2478 	0.00532481
0.2485 	0.00365667
0.2492 	0.00198853
0.2499 	0.000320385
0.2506 	7.22341e-05
0.2513 	6.07482e-05
0.252 	4.92601e-05
0.2527 	3.7772e-05
0.2534 	2.62839e-05
0.2541 	1.47958e-05
0.2548 	3.30767e-06
0.2555 	2.28501e-08
0.2562 	1.9334e-08
0.2569 	1.58171e-08
0.2583 	8.78314e-09
0.259 	5.26616e-09
0.2597 	1.74918e-09
0.2604 	2.36698e-10
0.2611 	2.27581e-10
0.2618 	2.18467e-10
0.2625 	2.09354e-10
0.2632 	2.00241e-10
0.2639 	1.91128e-10
0.2646 	1.82015e-10
0.2653 	1.73099e-10
0.266 	1.64446e-10
0.2667 	1.55795e-10
0.2674 	1.47146e-10
0.2688 	1.29848e-10
0.2695 	1.21199e-10
0.2702 	1.13195e-10
0.2709 	1.06803e-10
0.2716 	1.00412e-10
0.2723 	9.40235e-11
0.273 	8.76347e-11
0.2737 	8.12458e-11
0.2744 	7.4857e-11
0.2751 	6.88137e-11
0.2758 	6.48435e-11
0.2765 	6.08741e-11
0.2772 	5.69061e-11
0.2779 	5.29381e-11
0.2786 	4.89702e-11
0.2793 	4.50022e-11
0.28 	4.10342e-11
0.2807 	3.85339e-11
0.2814 	3.60339e-11
0.2821 	3.35351e-11
0.2828 	3.10363e-11
0.2835 	2.85375e-11
0.2842 	2.60387e-11
0.2849 	2.35399e-11
0.2856 	2.18656e-11
0.2863 	2.03287e-11
0.287 	1.87927e-11
0.2877 	1.72568e-11
0.2884 	1.57209e-11
0.2891 	1.41849e-11
0.2898 	1.2649e-11
0.2905 	1.15775e-11
0.2912 	1.06917e-11
0.2919 	9.80657e-12
0.2926 	8.92146e-12
0.2933 	8.03634e-12
0.294 	7.15123e-12
0.2947 	6.26612e-12
0.2954 	5.61899e-12
0.2961 	5.15035e-12
0.2968 	4.68198e-12
0.2982 	3.7454e-12
0.2989 	3.27711e-12
0.2996 	2.80882e-12
0.3003 	2.4459e-12
0.301 	2.22348e-12
0.3017 	2.00117e-12
0.3031 	1.55668e-12
0.3038 	1.33443e-12
0.3045 	1.11218e-12
0.3052 	9.27222e-13
0.3059 	8.35469e-13
0.3066 	7.43754e-13
0.3073 	6.52077e-13
0.308 	5.60399e-13
0.3087 	4.68722e-13
0.3094 	3.77045e-13
0.3101 	2.93961e-13
0.3108 	2.62439e-13
0.3115 	2.30926e-13
0.3122 	1.99431e-13
0.3129 	1.67935e-13
0.3136 	1.3644e-13
0.3143 	1.04944e-13
0.315 	7.34485e-14
0.3157 	6.49876e-14
0.3164 	5.65283e-14
0.3171 	4.80747e-14
0.3178 	3.9621e-14
0.3185 	3.11674e-14
0.3192 	2.27137e-14
0.3199 	1.42601e-14
0.3206 	1.16813e-14
0.3213 	1.00817e-14
0.322 	8.48336e-15
0.3227 	6.88499e-15
0.3234 	5.28663e-15
0.3241 	3.68826e-15
0.3248 	2.08989e-15
0.3255 	1.5007e-15
0.3262 	1.31517e-15
0.3269 	1.12976e-15
0.3276 	9.44358e-16
0.3283 	7.58955e-16
0.329 	5.73552e-16
0.3297 	3.88149e-16
0.3304 	2.98289e-16
0.3311 	2.80087e-16
0.3318 	2.61886e-16
0.3325 	2.43685e-16
0.3332 	2.25485e-16
0.3339 	2.07284e-16
0.3346 	1.89083e-16
0.3353 	1.75699e-16
0.336 	1.68736e-16
0.3367 	1.6177e-16
0.3374 	1.54803e-16
0.3381 	1.47835e-16
0.3388 	1.40867e-16
0.3395 	1.339e-16
0.3402 	1.27057e-16
0.3409 	1.20525e-16
0.3416 	1.13989e-16
0.3423 	1.07449e-16
0.343 	1.0091e-16
0.3437 	9.43706e-17
0.3444 	8.78311e-17
0.3451 	8.13772e-17
0.3458 	7.54371e-17
0.3465 	6.94939e-17
0.3479 	5.75964e-17
0.3486 	5.16476e-17
0.3493 	4.56988e-17
0.35 	3.97501e-17
0.3507 	3.59694e-17
0.3514 	3.21872e-17
0.3521 	2.83996e-17
0.3528 	2.46119e-17
0.3535 	2.08243e-17
0.3542 	1.70367e-17
0.3549 	1.3249e-17
0.3556 	1.146e-17
0.3563 	1.00037e-17
0.357 	8.54425e-18
0.3577 	7.08476e-18
0.3584 	5.62526e-18
0.3591 	4.16577e-18
0.3598 	2.70627e-18
0.3605 	2.07949e-18
0.3612 	1.78579e-18
0.3619 	1.49117e-18
0.3626 	1.19649e-18
0.3633 	9.01798e-19
0.364 	6.07111e-19
0.3647 	3.12423e-19
0.3654 	1.717e-19
0.3661 	1.4645e-19
0.3668 	1.21105e-19
0.3675 	9.57336e-20
0.3682 	7.03621e-20
0.3689 	4.49906e-20
0.3696 	1.96191e-20
0.3703 	4.81752e-21
0.371 	4.10913e-21
0.3717 	3.39761e-21
0.3724 	2.68434e-21
0.3731 	1.97108e-21
0.3738 	1.25781e-21
0.3745 	5.44542e-22
0.3752 	3.36755e-23
0.3759 	2.88074e-23
0.3766 	2.3916e-23
0.3773 	1.90014e-23
0.378 	1.40867e-23
0.3787 	9.1721e-24
0.3794 	4.25746e-24
0.3801 	4.40152e-26
0.3808 	3.77891e-26
0.3815 	3.15347e-26
0.3822 	2.52294e-26
0.3829 	1.89241e-26
0.3836 	1.26189e-26
0.3843 	6.3136e-27
0.385 	8.33161e-30
0.3857 	7.17929e-30
0.3864 	6.02296e-30
0.3871 	4.85194e-30
0.3878 	3.68093e-30
0.3885 	2.50991e-30
0.3892 	1.3389e-30
0.3899 	1.67886e-31
0.3906 	5.27454e-34
0.3913 	4.44608e-34
0.392 	3.60501e-34
0.3927 	2.76394e-34
0.3934 	1.92287e-34
0.3941 	1.08181e-34
0.3948 	2.40737e-35
0.3955 	3.89135e-38
0.3962 	3.29421e-38
0.3969 	2.68801e-38
0.3976 	2.08111e-38
0.3983 	1.47421e-38
0.399 	8.67314e-39
0.3997 	2.60416e-39
0.4004 	2.91733e-42
0.4011 	2.47917e-42
0.4018 	2.03547e-42
0.4025 	1.59027e-42
0.4032 	1.14506e-42
0.4039 	6.9985e-43
0.4046 	2.54642e-43
0.4053 	2.22796e-46
0.406 	1.90028e-46
0.4067 	1.56928e-46
0.4074 	1.23644e-46
0.4081 	9.03603e-47
0.4088 	5.70763e-47
0.4095 	2.37922e-47
0.4102 	1.72056e-50
0.4109 	1.47267e-50
0.4116 	1.22286e-50
0.4123 	9.71124e-51
0.413 	7.19386e-51
0.4137 	4.67648e-51
0.4144 	2.15911e-51
0.4151 	1.32971e-54
0.4158 	1.14198e-54
0.4165 	9.53219e-55
0.4172 	7.62595e-55
0.4179 	5.71972e-55
0.4186 	3.81349e-55
0.4193 	1.90725e-55
0.42 	1.02076e-58
0.4207 	8.795e-59
0.4214 	7.37771e-59
0.4221 	5.94331e-59
0.4228 	4.5089e-59
0.4235 	3.07449e-59
0.4242 	1.64008e-59
0.4249 	2.05676e-60
0.4256 	6.70771e-63
0.4263 	5.65337e-63
0.427 	4.58392e-63
0.4277 	3.51447e-63
0.4284 	2.44502e-63
0.4291 	1.37557e-63
0.4298 	3.0612e-64
0.4305 	5.06738e-67
0.4312 	4.28922e-67
0.4319 	3.49988e-67
0.4326 	2.70968e-67
0.4333 	1.91948e-67
0.434 	1.12927e-67
0.4347 	3.39071e-68
0.4354 	3.79722e-71
0.4361 	3.22663e-71
0.4368 	2.6491e-71
0.4375 	2.06967e-71
0.4382 	1.49025e-71
0.4389 	9.10824e-72
0.4396 	3.314e-72
0.4403 	2.82529e-75
0.441 	2.40966e-75
0.4417 	1.9899e-75
0.4424 	1.56785e-75
0.4431 	1.14579e-75
0.4438 	7.23738e-76
0.4445 	3.01684e-76
0.4452 	2.08722e-79
0.4459 	1.78648e-79
0.4466 	1.48342e-79
0.448 	8.72665e-80
0.4487 	5.67287e-80
0.4494 	2.61909e-80
0.4501 	1.52946e-83
0.4508 	1.31353e-83
0.4515 	1.09641e-83
0.4522 	8.7715e-84
0.4529 	6.5789e-84
0.4536 	4.38631e-84
0.4543 	2.19371e-84
0.455 	1.10985e-87
0.4557 	9.56261e-88
0.4564 	8.02161e-88
0.4571 	6.46201e-88
0.4578 	4.9024e-88
0.4585 	3.34279e-88
0.4592 	1.78319e-88
0.4599 	2.23582e-89
0.4606 	6.88067e-92
0.4613 	5.79912e-92
0.462 	4.70209e-92
0.4627 	3.60507e-92
0.4641 	1.41101e-92
0.4648 	3.13979e-93
0.4655 	4.88528e-96
0.4669 	3.37409e-96
0.4676 	2.61229e-96
0.4683 	1.85048e-96
0.469 	1.08867e-96
0.4697 	3.2686e-97
0.4704 	3.41796e-100
0.4711 	2.90437e-100
0.4718 	2.38452e-100
0.4725 	1.86296e-100
0.4732 	1.3414e-100
0.4739 	8.19842e-101
0.4746 	2.98283e-101
0.4753 	2.354e-104
0.476 	2.00772e-104
0.4767 	1.65799e-104
0.4774 	1.30633e-104
0.4781 	9.5467e-105
0.4788 	6.03011e-105
0.4795 	2.51351e-105
0.4802 	1.59458e-108
0.4809 	1.36485e-108
0.4816 	1.13333e-108
0.4823 	9.00023e-109
0.483 	6.66712e-109
0.4837 	4.33401e-109
0.4844 	2.00089e-109
0.4851 	1.06167e-112
0.4858 	9.1181e-113
0.4865 	7.61109e-113
0.4872 	6.08901e-113
0.4879 	4.56693e-113
0.4886 	3.04485e-113
0.4893 	1.52277e-113
0.49 	6.94346e-117
0.4907 	5.98274e-117
0.4914 	5.01879e-117
0.4921 	4.043e-117
0.4928 	3.06721e-117
0.4935 	2.09142e-117
0.4942 	1.11563e-117
0.4949 	1.39836e-118
0.4956 	3.8533e-121
0.4963 	3.24775e-121
0.4977 	2.01898e-121
0.4984 	1.40459e-121
0.4991 	7.90198e-122
0.4998 	1.7581e-122
0.5005 	2.43488e-125
0.5012 	2.06107e-125
0.5019 	1.68177e-125
0.5026 	1.30205e-125
0.5033 	9.22336e-126
0.504 	5.42618e-126
0.5047 	1.629e-126
0.5054 	1.5088e-129
0.5061 	1.28214e-129
0.5068 	1.05266e-129
0.5075 	8.22412e-130
0.5082 	5.92164e-130
0.5089 	3.61916e-130
0.5096 	1.31668e-130
0.5103 	9.16453e-134
0.511 	7.81677e-134
0.5117 	6.45525e-134
0.5131 	3.7169e-134
0.5138 	2.34772e-134
0.5145 	9.7855e-135
0.5152 	5.45467e-138
0.5159 	4.66903e-138
0.5166 	3.87713e-138
0.5173 	3.07897e-138
0.518 	2.2808e-138
0.5187 	1.48263e-138
0.5194 	6.84467e-139
0.5201 	3.18048e-142
0.5208 	2.73165e-142
0.5215 	2.28026e-142
0.5222 	1.82424e-142
0.5229 	1.36823e-142
0.5236 	9.12215e-143
0.5243 	4.56201e-143
0.525 	1.8651e-146
0.5257 	1.61272e-146
0.5264 	1.35947e-146
0.5271 	1.10306e-146
0.5278 	8.46648e-147
0.5285 	5.90237e-147
0.5292 	3.33825e-147
0.5299 	7.74137e-148
0.5306 	3.78177e-148
0.5313 	3.43575e-148
0.532 	3.08957e-148
0.5327 	2.74339e-148
0.5334 	2.39722e-148
0.5341 	2.05104e-148
0.5348 	1.70486e-148
0.5355 	1.51116e-148
0.5362 	1.37846e-148
0.5369 	1.24558e-148
0.5376 	1.11268e-148
0.539 	8.46887e-149
0.5397 	7.1399e-149
0.5404 	6.24886e-149
0.5411 	5.68627e-149
0.5418 	5.12301e-149
0.5425 	4.55956e-149
0.5432 	3.99612e-149
0.5439 	3.43267e-149
0.5446 	2.86922e-149
0.5453 	2.44952e-149
0.546 	2.22148e-149
0.5467 	1.9932e-149
0.5474 	1.76479e-149
0.5481 	1.53638e-149
0.5488 	1.30798e-149
0.5495 	1.07957e-149
0.5502 	8.92065e-150
0.5509 	8.06814e-150
0.5516 	7.2149e-150
0.5523 	6.36092e-150
0.553 	5.50695e-150
0.5537 	4.65297e-150
0.5544 	3.79899e-150
0.5551 	3.02505e-150
0.5558 	2.73129e-150
0.5565 	2.43735e-150
0.5572 	2.14305e-150
0.5579 	1.84875e-150
0.5586 	1.55446e-150
0.5593 	1.26016e-150
0.56 	9.65863e-151
0.5607 	8.71517e-151
0.5614 	7.77131e-151
0.5621 	6.82601e-151
0.5628 	5.88072e-151
0.5635 	4.93542e-151
0.5642 	3.99012e-151
0.5649 	3.04482e-151
0.5656 	2.66378e-151
0.5663 	2.37675e-151
0.567 	2.08918e-151
0.5677 	1.80162e-151
0.5684 	1.51405e-151
0.5691 	1.22648e-151
0.5698 	9.38914e-152
0.5705 	7.96462e-152
0.5712 	7.12056e-152
0.5719 	6.27494e-152
0.5726 	5.4292e-152
0.5733 	4.58346e-152
0.574 	3.73772e-152
0.5747 	2.89198e-152
0.5754 	2.38881e-152
0.5761 	2.14256e-152
0.5768 	1.89594e-152
0.5775 	1.64922e-152
0.5782 	1.4025e-152
0.5789 	1.15578e-152
0.5796 	9.09065e-153
0.5803 	7.3667e-153
0.581 	6.63374e-153
0.5817 	5.89996e-153
0.5824 	5.16573e-153
0.5831 	4.4315e-153
0.5838 	3.69727e-153
0.5845 	2.96304e-153
0.5852 	2.37354e-153
0.5859 	2.14585e-153
0.5866 	1.91799e-153
0.588 	1.46193e-153
0.5894 	1.00586e-153
0.5901 	7.99775e-154
0.5908 	7.25368e-154
0.5915 	6.50926e-154
0.5922 	5.76423e-154
0.5929 	5.01919e-154
0.5936 	4.27416e-154
0.5943 	3.52912e-154
0.595 	2.78409e-154
0.5957 	2.53053e-154
0.5964 	2.27692e-154
0.5971 	2.02308e-154
0.5978 	1.76924e-154
0.5985 	1.5154e-154
0.5992 	1.26156e-154
0.5999 	1.00773e-154
0.6006 	8.95625e-155
0.6013 	8.0714e-155
0.602 	7.18571e-155
0.6027 	6.30002e-155
0.6034 	5.41433e-155
0.6041 	4.52863e-155
0.6048 	3.64294e-155
0.6055 	3.16809e-155
0.6062 	2.85757e-155
0.6069 	2.54677e-155
0.6076 	2.23595e-155
0.6083 	1.92512e-155
0.609 	1.6143e-155
0.6097 	1.30348e-155
0.6104 	1.10846e-155
0.6111 	1.0003e-155
0.6118 	8.9206e-156
0.6125 	7.83796e-156
0.6132 	6.75532e-156
0.6139 	5.67269e-156
0.6146 	4.59005e-156
0.6153 	3.81245e-156
0.616 	3.44157e-156
0.6167 	3.07046e-156
0.6174 	2.69922e-156
0.6181 	2.32798e-156
0.6188 	1.95674e-156
0.6195 	1.5855e-156
0.6202 	1.28472e-156
0.6209 	1.16008e-156
0.6216 	1.03537e-156
0.6223 	9.10601e-157
0.623 	7.85833e-157
0.6237 	6.61066e-157
0.6244 	5.36298e-157
0.6251 	4.23501e-157
0.6258 	3.8253e-157
0.6265 	3.41544e-157
0.6272 	3.00532e-157
0.6279 	2.5952e-157
0.6286 	2.18508e-157
0.6293 	1.77496e-157
0.63 	1.36484e-157
0.6307 	1.23324e-157
0.6314 	1.1016e-157
0.6321 	9.69865e-158
0.6328 	8.38126e-158
0.6335 	7.06386e-158
0.6342 	5.74647e-158
0.6349 	4.42907e-158
0.6356 	3.88684e-158
0.6363 	3.47378e-158
0.637 	3.06031e-158
0.6377 	2.64684e-158
0.6384 	2.23337e-158
0.6391 	1.8199e-158
0.6398 	1.40643e-158
0.6405 	1.19782e-158
0.6412 	1.07114e-158
0.6419 	9.44338e-159
0.6426 	8.17525e-159
0.6433 	6.90712e-159
0.644 	5.639e-159
0.6447 	4.37087e-159
0.6454 	3.61037e-159
0.6461 	3.23059e-159
0.6468 	2.85048e-159
0.6475 	2.47028e-159
0.6482 	2.09008e-159
0.6489 	1.70988e-159
0.6496 	1.32968e-159
0.6503 	1.0647e-159
0.651 	9.53361e-160
0.6517 	8.41936e-160
0.6524 	7.30466e-160
0.6531 	6.18996e-160
0.6538 	5.07526e-160
0.6545 	3.96055e-160
0.6552 	3.0731e-160
0.6559 	2.75374e-160
0.6566 	2.43421e-160
0.6573 	2.11448e-160
0.658 	1.79476e-160
0.6587 	1.47504e-160
0.6594 	1.15531e-160
0.6601 	8.68457e-161
0.6608 	7.78813e-161
0.6615 	6.89131e-161
0.6622 	5.99381e-161
0.6629 	5.09631e-161
0.6636 	4.1988e-161
0.6643 	3.3013e-161
0.665 	2.40379e-161
0.6657 	2.15743e-161
0.6664 	1.91099e-161
0.6671 	1.66433e-161
0.6678 	1.41766e-161
0.6685 	1.17099e-161
0.6692 	9.2432e-162
0.6699 	6.77651e-162
0.6706 	5.85569e-162
0.6713 	5.19245e-162
0.672 	4.52844e-162
0.6727 	3.86444e-162
0.6734 	3.20043e-162
0.6741 	2.53642e-162
0.6748 	1.87242e-162
0.6755 	1.55776e-162
0.6762 	1.38285e-162
0.6769 	1.20773e-162
0.6776 	1.0326e-162
0.6783 	8.57464e-163
0.679 	6.82329e-163
0.6797 	5.07195e-163
0.6804 	4.06299e-163
0.6811 	3.61082e-163
0.6818 	3.15818e-163
0.6825 	2.70543e-163
0.6832 	2.25267e-163
0.6839 	1.79991e-163
0.6846 	1.34715e-163
0.6853 	1.03931e-163
0.686 	9.24697e-164
0.6867 	8.09987e-164
0.6881 	5.80458e-164
0.6888 	4.65694e-164
0.6895 	3.5093e-164
0.6902 	2.60814e-164
0.6909 	2.3232e-164
0.6916 	2.03808e-164
0.693 	1.46743e-164
0.6937 	1.18211e-164
0.6944 	8.96785e-165
0.6951 	6.44217e-165
0.6958 	5.88179e-165
0.6965 	5.32113e-165
0.6972 	4.75997e-165
0.6979 	4.19882e-165
0.6986 	3.63766e-165
0.6993 	3.0765e-165
0.7 	2.51534e-165
