0 	1
0.0007 	1
0.0014 	1
0.0021 	1
0.0028 	1
0.0042 	1
0.0049 	1
0.0056 	1
0.0063 	1
0.007 	1
0.0077 	1
0.0084 	1
0.0091 	1
0.0098 	1
0.0105 	1
0.0112 	1
0.0119 	1
0.0133 	1
0.014 	1
0.0147 	1
0.0154 	1
0.0161 	1
0.0168 	1
0.0175 	1
0.0182 	1
0.0189 	1
0.0196 	1
0.0203 	1
0.021 	1
0.0217 	1
0.0224 	1
0.0231 	1
0.0238 	1
0.0245 	1
0.0252 	1
0.0259 	1
0.0266 	1
0.0273 	1
0.028 	1
0.0287 	1
0.0294 	1
0.0301 	1
0.0308 	1
0.0315 	1
0.0322 	1
0.0329 	1
0.0336 	1
0.0343 	1
0.035 	1
0.0357 	1
0.0364 	1
0.0371 	1
0.0378 	1
0.0385 	1
0.0392 	1
0.0399 	1
0.0406 	1
0.0413 	1
0.0427 	1
0.0434 	1
0.0441 	1
0.0448 	1
0.0455 	1
0.0462 	1
0.0469 	1
0.0476 	1
0.0483 	1
0.049 	1
0.0497 	1
0.0504 	1
0.0511 	1
0.0518 	1
0.0525 	1
0.0532 	1
0.0539 	1
0.0546 	1
0.0553 	1
0.056 	1
0.0567 	1
0.0574 	1
0.0581 	1
0.0588 	1
0.0595 	1
0.0602 	1
0.0609 	1
0.0616 	1
0.0623 	1
0.063 	1
0.0637 	1
0.0644 	1
0.0651 	1
0.0658 	1
0.0665 	1
0.0679 	1
0.0686 	1
0.0693 	1
0.07 	1
0.0707 	1
0.0714 	1
0.0721 	1
0.0728 	1
0.0735 	1
0.0742 	1
0.0749 	1
0.0756 	1
0.077 	1
0.0784 	1
0.0791 	1
0.0798 	1
0.0805 	1
0.0812 	1
0.0819 	1
0.0826 	1
0.0833 	1
0.084 	1
0.0847 	1
0.0854 	1
0.0861 	1
0.0868 	1
0.0875 	1
0.0882 	1
0.0889 	1
0.0896 	1
0.0903 	1
0.091 	1
0.0917 	1
0.0924 	1
0.0931 	1
0.0938 	1
0.0945 	1
0.0952 	1
0.0959 	1
0.0966 	1
0.0973 	1
0.098 	1
0.0987 	1
0.0994 	1
0.1001 	1
0.1008 	1
0.1015 	1
0.1029 	1
0.1036 	1
0.1043 	1
0.105 	1
0.1057 	1
0.1064 	1
0.1071 	1
0.1078 	1
0.1085 	1
0.1092 	1
0.1099 	1
0.1106 	1
0.1113 	1
0.112 	1
0.1127 	1
0.1134 	1
0.1141 	1
0.1148 	1
0.1155 	1
0.1162 	1
0.1169 	1
0.1176 	1
0.1183 	1
0.119 	1
0.1197 	1
0.1204 	1
0.1211 	1
0.1218 	1
0.1225 	1
0.1232 	1
0.1239 	1
0.1246 	1
0.1253 	1
0.126 	1
0.1267 	1
0.1274 	1
0.1281 	1
0.1288 	1
0.1295 	1
0.1302 	1
0.1309 	1
0.1316 	1
0.1323 	1
0.133 	1
0.1337 	1
0.1344 	1
0.1351 	1
0.1358 	1
0.1365 	1
0.1372 	1
0.1379 	1
0.1386 	1
0.1393 	1
0.14 	1
0.1407 	1
0.1421 	1
0.1428 	1
0.1435 	1
0.1442 	1
0.1449 	1
0.1456 	1
0.1463 	1
0.147 	1
0.1477 	1
0.1484 	1
0.1491 	1
0.1498 	1
0.1505 	1
0.1512 	1
0.1519 	1
0.1526 	1
0.1533 	1
0.154 	1
0.1547 	1
0.1554 	1
0.1561 	1
0.1568 	1
0.1575 	1
0.1582 	1
0.1589 	1
0.1596 	1
0.1603 	1
0.161 	1
0.1617 	1
0.1624 	1
0.1631 	1
0.1638 	1
0.1645 	1
0.1652 	1
0.1659 	1
0.1666 	1
0.1673 	1
0.168 	1
0.1687 	1
0.1694 	1
0.1701 	1
0.1708 	1
0.1715 	1
0.1722 	1
0.1729 	1
0.1736 	1
0.1743 	1
0.175 	1
0.1757 	1
0.1764 	1
0.1771 	1
0.1778 	1
0.1785 	1
0.1792 	1
0.1799 	1
0.1806 	1
0.1813 	1
0.182 	1
0.1827 	1
0.1834 	1
0.1841 	1
0.1848 	1
0.1855 	1
0.1862 	1
0.1869 	1
0.1876 	1
0.1883 	1
0.189 	1
0.1897 	1
0.1904 	1
0.1911 	1
0.1918 	1
0.1925 	1
0.1939 	1
0.1946 	1
0.1953 	1
0.196 	1
0.1967 	1
0.1974 	1
0.1981 	1
0.1988 	1
0.1995 	1
0.2002 	1
0.2009 	1
0.2016 	1
0.2023 	1
0.203 	1
0.2037 	1
0.2044 	1
0.2051 	1
0.2058 	1
0.2065 	1
0.2079 	1
0.2086 	1
0.2093 	1
0.21 	1
0.2107 	0.999987
0.2114 	0.999974
0.2121 	0.99996
0.2128 	0.999947
0.2135 	0.999934
0.2142 	0.999921
0.2149 	0.999908
0.2156 	0.998878
0.2163 	0.997678
0.217 	0.996478
0.2177 	0.995278
0.2184 	0.994078
0.2191 	0.992879
0.2198 	0.991679
0.2205 	0.97789
0.2212 	0.959066
0.2219 	0.940241
0.2226 	0.921415
0.224 	0.883764
0.2247 	0.864939
0.2254 	0.821714
0.2261 	0.760189
0.2268 	0.698665
0.2275 	0.63714
0.2282 	0.575615
0.2289 	0.51409
0.2296 	0.452565
0.2303 	0.395505
0.231 	0.3444
0.2317 	0.293295
0.2324 	0.242192
0.2331 	0.191088
0.2338 	0.139984
0.2345 	0.0888805
0.2352 	0.050299
0.2359 	0.0430231
0.2366 	0.0357476
0.2373 	0.0284725
0.238 	0.0211975
0.2387 	0.0139224
0.2394 	0.00664733
0.2401 	0.000403336
0.2408 	0.00034578
0.2415 	0.000288227
0.2422 	0.000230676
0.2429 	0.000173125
0.2436 	0.000115574
0.2443 	5.80236e-05
0.245 	4.72898e-07
0.2457 	4.0735e-07
0.2464 	3.41802e-07
0.2471 	2.76253e-07
0.2478 	2.10703e-07
0.2485 	1.45154e-07
0.2492 	7.96042e-08
0.2499 	1.40547e-08
0.2506 	4.5851e-09
0.2513 	4.46213e-09
0.252 	4.33916e-09
0.2527 	4.2162e-09
0.2534 	4.09323e-09
0.2541 	3.97026e-09
0.2548 	3.84729e-09
0.2555 	3.7496e-09
0.2562 	3.66201e-09
0.2569 	3.57454e-09
0.2576 	3.48707e-09
0.2583 	3.39961e-09
0.259 	3.31214e-09
0.2597 	3.22468e-09
0.2604 	3.10466e-09
0.2611 	2.96022e-09
0.2618 	2.81588e-09
0.2625 	2.67156e-09
0.2632 	2.52724e-09
0.2639 	2.38293e-09
0.2646 	2.23861e-09
0.2653 	2.11445e-09
0.266 	2.01715e-09
0.2667 	1.91987e-09
0.2674 	1.82258e-09
0.2681 	1.72529e-09
0.2688 	1.62801e-09
0.2695 	1.53072e-09
0.2702 	1.44114e-09
0.2709 	1.37082e-09
0.2716 	1.30051e-09
0.2723 	1.23021e-09
0.273 	1.15991e-09
0.2737 	1.08961e-09
0.2744 	1.01931e-09
0.2751 	9.51552e-10
0.2758 	8.99081e-10
0.2765 	8.46617e-10
0.2772 	7.94168e-10
0.2779 	7.41719e-10
0.2786 	6.8927e-10
0.2793 	6.36821e-10
0.28 	5.84373e-10
0.2807 	5.48331e-10
0.2814 	5.12292e-10
0.2821 	4.76267e-10
0.2828 	4.40241e-10
0.2835 	4.04216e-10
0.2842 	3.6819e-10
0.2849 	3.32165e-10
0.2856 	3.07306e-10
0.287 	2.61325e-10
0.2877 	2.38339e-10
0.2884 	2.15354e-10
0.2898 	1.69382e-10
0.2905 	1.53435e-10
0.2919 	1.27176e-10
0.2926 	1.14051e-10
0.2933 	1.00926e-10
0.294 	8.7801e-11
0.2947 	7.46759e-11
0.2954 	6.54318e-11
0.2961 	5.90984e-11
0.2968 	5.27683e-11
0.2975 	4.64391e-11
0.2982 	4.01099e-11
0.2989 	3.37808e-11
0.2996 	2.74516e-11
0.3003 	2.27845e-11
0.301 	2.03335e-11
0.3017 	1.78838e-11
0.3024 	1.54347e-11
0.3031 	1.29855e-11
0.3038 	1.05364e-11
0.3045 	8.0873e-12
0.3052 	6.13252e-12
0.3059 	5.41358e-12
0.3066 	4.69494e-12
0.3073 	3.97659e-12
0.308 	3.25824e-12
0.3087 	2.53989e-12
0.3101 	1.18462e-12
0.3108 	1.03626e-12
0.3115 	8.87952e-13
0.3122 	7.39723e-13
0.3129 	5.91495e-13
0.3136 	4.43266e-13
0.3143 	2.95037e-13
0.315 	1.46809e-13
0.3157 	1.27595e-13
0.3164 	1.08385e-13
0.3171 	8.91875e-14
0.3178 	6.99905e-14
0.3185 	5.07934e-14
0.3192 	3.15964e-14
0.3199 	1.23993e-14
0.3206 	8.56467e-15
0.3213 	7.29053e-15
0.322 	6.01731e-15
0.3227 	4.7441e-15
0.3234 	3.47088e-15
0.3241 	2.19767e-15
0.3248 	9.2445e-16
0.3255 	5.31377e-16
0.3262 	4.90361e-16
0.3269 	4.49354e-16
0.3276 	4.08348e-16
0.3283 	3.67342e-16
0.329 	3.26337e-16
0.3297 	2.85331e-16
0.3304 	2.58604e-16
0.3311 	2.42588e-16
0.3318 	2.26561e-16
0.3325 	2.10532e-16
0.3332 	1.94502e-16
0.3339 	1.78473e-16
0.3346 	1.62443e-16
0.3353 	1.4737e-16
0.336 	1.33572e-16
0.3367 	1.19763e-16
0.3374 	1.05948e-16
0.3381 	9.21322e-17
0.3388 	7.83168e-17
0.3395 	6.45014e-17
0.3402 	5.29328e-17
0.3409 	4.69811e-17
0.3416 	4.10239e-17
0.3423 	3.50613e-17
0.343 	2.90986e-17
0.3444 	1.71733e-17
0.3451 	1.18506e-17
0.3458 	1.0367e-17
0.3465 	8.88212e-18
0.3472 	7.39478e-18
0.3479 	5.90745e-18
0.3486 	4.42012e-18
0.3493 	2.93279e-18
0.35 	1.44546e-18
0.3507 	1.25269e-18
0.3514 	1.05978e-18
0.3521 	8.66325e-19
0.3528 	6.72868e-19
0.3535 	4.79412e-19
0.3542 	2.85956e-19
0.3549 	9.24993e-20
0.3556 	5.71604e-20
0.3563 	4.81708e-20
0.3577 	3.0099e-20
0.3584 	2.1063e-20
0.3591 	1.20271e-20
0.3598 	2.99116e-21
0.3605 	3.68821e-22
0.3612 	3.11914e-22
0.3619 	2.54506e-22
0.3626 	1.97058e-22
0.3633 	1.39611e-22
0.364 	8.21637e-23
0.3647 	2.47163e-23
0.3654 	8.84473e-26
0.3661 	7.51612e-26
0.3668 	6.17082e-26
0.3675 	4.82096e-26
0.3682 	3.4711e-26
0.3689 	2.12124e-26
0.3696 	7.71377e-27
0.3703 	2.66458e-31
0.371 	2.27367e-31
0.3717 	1.87797e-31
0.3724 	1.47961e-31
0.3731 	1.08126e-31
0.3738 	6.82902e-32
0.3745 	2.84546e-32
0.3752 	5.9827e-37
0.3759 	5.12406e-37
0.3766 	4.25657e-37
0.3773 	3.38022e-37
0.378 	2.50387e-37
0.3787 	1.62752e-37
0.3801 	8.7311e-43
0.3815 	6.26963e-43
0.3822 	5.0157e-43
0.3829 	3.76178e-43
0.3836 	2.50786e-43
0.3843 	1.25393e-43
0.385 	9.28e-49
0.3857 	8.00447e-49
0.3864 	6.72218e-49
0.3871 	5.41509e-49
0.3878 	4.108e-49
0.3885 	2.80091e-49
0.3892 	1.49382e-49
0.3899 	1.86736e-50
0.3906 	7.99577e-55
0.3913 	6.74809e-55
0.392 	5.47143e-55
0.3927 	4.19476e-55
0.3934 	2.9181e-55
0.3941 	1.64143e-55
0.3948 	3.64771e-56
0.3955 	8.73823e-61
0.3962 	7.40653e-61
0.3969 	6.0441e-61
0.3976 	4.67931e-61
0.3983 	3.31451e-61
0.399 	1.94972e-61
0.3997 	5.84923e-62
0.4004 	9.87007e-67
0.4011 	8.39933e-67
0.4018 	6.8985e-67
0.4025 	5.38945e-67
0.4032 	3.88041e-67
0.4039 	2.37137e-67
0.4046 	8.62323e-68
0.4053 	1.17469e-72
0.406 	1.0033e-72
0.4067 	8.29038e-73
0.4074 	6.53182e-73
0.4081 	4.77326e-73
0.4095 	1.25613e-73
0.4102 	1.59174e-78
0.4109 	1.36423e-78
0.4116 	1.13377e-78
0.4123 	9.00348e-79
0.413 	6.66925e-79
0.4137 	4.33502e-79
0.4144 	2.00079e-79
0.4151 	2.44578e-84
0.4158 	2.10325e-84
0.4165 	1.75752e-84
0.4172 	1.40601e-84
0.4179 	1.05451e-84
0.4193 	3.51507e-85
0.4207 	3.64271e-90
0.4214 	3.0595e-90
0.4228 	1.8697e-90
0.4235 	1.2748e-90
0.4242 	6.79896e-91
0.4249 	8.49943e-92
0.4256 	7.33116e-96
0.4263 	6.18752e-96
0.427 	5.01691e-96
0.4277 	3.8463e-96
0.4284 	2.6757e-96
0.4291 	1.50509e-96
0.4298 	3.34483e-97
0.4305 	2.14106e-101
0.4312 	1.81459e-101
0.4319 	1.48078e-101
0.4326 	1.14642e-101
0.4333 	8.1205e-102
0.434 	4.77684e-102
0.4347 	1.43317e-102
0.4354 	1.53106e-106
0.4361 	1.3022e-106
0.4368 	1.06936e-106
0.4375 	8.35446e-107
0.4382 	6.01528e-107
0.4389 	3.67609e-107
0.4396 	1.33691e-107
0.4403 	2.20019e-111
0.441 	1.87794e-111
0.4417 	1.55132e-111
0.4424 	1.22226e-111
0.4431 	8.93198e-112
0.4438 	5.64139e-112
0.4445 	2.3508e-112
0.4452 	3.68153e-116
0.4459 	3.15315e-116
0.4466 	2.61932e-116
0.4473 	2.08006e-116
0.448 	1.5408e-116
0.4487 	1.00155e-116
0.4501 	6.17845e-121
0.4508 	5.30919e-121
0.4515 	4.4337e-121
0.4522 	3.54698e-121
0.4529 	2.66026e-121
0.4536 	1.77354e-121
0.4543 	8.86821e-122
0.455 	1.01976e-125
0.4557 	8.79068e-126
0.4564 	7.37784e-126
0.4571 	5.94329e-126
0.4578 	4.50874e-126
0.4585 	3.07419e-126
0.4592 	1.63965e-126
0.4599 	2.05098e-127
0.4606 	1.43525e-130
0.4613 	1.21028e-130
0.462 	9.81312e-131
0.4627 	7.52345e-131
0.4634 	5.23379e-131
0.4641 	2.94412e-131
0.4648 	6.54449e-132
0.4655 	2.32137e-135
0.4662 	1.9658e-135
0.4669 	1.60408e-135
0.4676 	1.24187e-135
0.4683 	8.79672e-136
0.469 	5.17471e-136
0.4697 	1.5527e-136
0.4704 	3.73791e-140
0.4711 	3.17739e-140
0.4718 	2.60888e-140
0.4725 	2.0382e-140
0.4732 	1.46753e-140
0.4739 	8.96846e-141
0.4746 	3.26166e-141
0.4753 	6.02189e-145
0.476 	5.13772e-145
0.4767 	4.24357e-145
0.4774 	3.34387e-145
0.4781 	2.44418e-145
0.4788 	1.54448e-145
0.4795 	6.44782e-146
0.4802 	2.06809e-148
0.4809 	1.81111e-148
0.4816 	1.5541e-148
0.4823 	1.29705e-148
0.483 	1.04e-148
0.4837 	7.82947e-149
0.4844 	5.25896e-149
0.4851 	3.02598e-149
0.4858 	2.8181e-149
0.4865 	2.61019e-149
0.4872 	2.40224e-149
0.4879 	2.19429e-149
0.4886 	1.98634e-149
0.4893 	1.77839e-149
0.49 	1.57044e-149
0.4907 	1.46367e-149
0.4914 	1.35689e-149
0.4921 	1.25008e-149
0.4928 	1.14327e-149
0.4935 	1.03646e-149
0.4942 	9.29656e-150
0.4949 	8.22847e-150
0.4956 	7.57709e-150
0.4963 	6.99514e-150
0.497 	6.41299e-150
0.4977 	5.83083e-150
0.4984 	5.24868e-150
0.4991 	4.66652e-150
0.4998 	4.08437e-150
0.5005 	3.70525e-150
0.5012 	3.40734e-150
0.5019 	3.10932e-150
0.5026 	2.81129e-150
0.5033 	2.51325e-150
0.504 	2.21522e-150
0.5047 	1.91719e-150
0.5054 	1.70792e-150
0.5061 	1.56521e-150
0.5068 	1.42245e-150
0.5075 	1.27968e-150
0.5082 	1.13691e-150
0.5089 	9.94139e-151
0.5096 	8.51367e-151
0.5103 	7.42354e-151
0.511 	6.78353e-151
0.5117 	6.14331e-151
0.5124 	5.50297e-151
0.5131 	4.86263e-151
0.5138 	4.22228e-151
0.5145 	3.58194e-151
0.5152 	3.0476e-151
0.5159 	2.77825e-151
0.5166 	2.50883e-151
0.5173 	2.23933e-151
0.518 	1.96983e-151
0.5187 	1.70033e-151
0.5194 	1.43083e-151
0.5201 	1.18459e-151
0.5208 	1.07786e-151
0.5215 	9.71106e-152
0.5222 	8.64313e-152
0.5229 	7.57519e-152
0.5236 	6.50725e-152
0.5243 	5.43932e-152
0.525 	4.37138e-152
0.5257 	3.97172e-152
0.5264 	3.57199e-152
0.5271 	3.17207e-152
0.5278 	2.77214e-152
0.5285 	2.37221e-152
0.5292 	1.97228e-152
0.5299 	1.57235e-152
0.5306 	1.39356e-152
0.5313 	1.25162e-152
0.532 	1.10959e-152
0.5327 	9.67558e-153
0.5334 	8.25528e-153
0.5341 	6.83497e-153
0.5348 	5.41466e-153
0.5355 	4.66641e-153
0.5362 	4.18697e-153
0.5369 	3.70721e-153
0.5376 	3.22742e-153
0.5383 	2.74762e-153
0.539 	2.26783e-153
0.5397 	1.78804e-153
0.5404 	1.49416e-153
0.5411 	1.33973e-153
0.5418 	1.18519e-153
0.5425 	1.03063e-153
0.5432 	8.76074e-154
0.5439 	7.21514e-154
0.5446 	5.66954e-154
0.5453 	4.58259e-154
0.546 	4.10718e-154
0.5467 	3.63151e-154
0.5474 	3.1557e-154
0.5481 	2.67988e-154
0.5488 	2.20407e-154
0.5495 	1.72826e-154
0.5502 	1.34836e-154
0.5509 	1.20823e-154
0.5516 	1.06804e-154
0.5523 	9.27788e-155
0.553 	7.87536e-155
0.5537 	6.47284e-155
0.5544 	5.07032e-155
0.5551 	3.81157e-155
0.5558 	3.41541e-155
0.5565 	3.01912e-155
0.5572 	2.6226e-155
0.5579 	2.22608e-155
0.5586 	1.82955e-155
0.5593 	1.43303e-155
0.56 	1.03651e-155
0.5607 	9.2892e-156
0.5614 	8.21313e-156
0.5621 	7.13624e-156
0.5628 	6.05935e-156
0.5635 	4.98247e-156
0.5642 	3.90558e-156
0.5649 	2.82869e-156
0.5656 	2.43393e-156
0.5663 	2.15284e-156
0.567 	1.87149e-156
0.5677 	1.59013e-156
0.5684 	1.30878e-156
0.5691 	1.02742e-156
0.5698 	7.46069e-157
0.5705 	6.15148e-157
0.5712 	5.44401e-157
0.5719 	4.73585e-157
0.5733 	3.31942e-157
0.574 	2.61121e-157
0.5747 	1.903e-157
0.5754 	1.50132e-157
0.5761 	1.32954e-157
0.5768 	1.15762e-157
0.5775 	9.85659e-158
0.5782 	8.13697e-158
0.5789 	6.41736e-158
0.5796 	4.69774e-158
0.5803 	3.54245e-158
0.581 	3.13958e-158
0.5817 	2.73642e-158
0.5824 	2.33311e-158
0.5831 	1.92979e-158
0.5838 	1.52647e-158
0.5845 	1.12315e-158
0.5852 	8.08964e-159
0.5859 	7.17591e-159
0.5866 	6.26166e-159
0.5873 	5.34688e-159
0.588 	4.4321e-159
0.5887 	3.51732e-159
0.5894 	2.60254e-159
0.5901 	1.78977e-159
0.5908 	1.58914e-159
0.5915 	1.38841e-159
0.5922 	1.18754e-159
0.5929 	9.86657e-160
0.5936 	7.85779e-160
0.5943 	5.84901e-160
0.595 	3.84022e-160
0.5957 	3.41321e-160
0.5964 	2.98608e-160
0.5971 	2.55853e-160
0.5978 	2.13099e-160
0.5992 	1.2759e-160
0.5999 	8.48352e-161
0.6006 	7.11694e-161
0.6013 	6.23508e-161
0.6027 	4.46928e-161
0.6041 	2.70347e-161
0.6055 	1.44199e-161
0.6069 	1.08808e-161
0.6076 	9.11002e-162
0.6083 	7.33922e-162
0.609 	5.56842e-162
0.6097 	3.79763e-162
0.6104 	2.84167e-162
0.6111 	2.49684e-162
0.6118 	2.15165e-162
0.6125 	1.80635e-162
0.6132 	1.46106e-162
0.6139 	1.11576e-162
0.6146 	7.70468e-163
0.6153 	5.45118e-163
0.616 	4.79692e-163
0.6167 	4.14208e-163
0.6174 	3.48691e-163
0.6181 	2.83175e-163
0.6195 	1.52141e-163
0.6202 	1.01888e-163
0.6209 	8.97968e-164
0.6216 	7.76965e-164
0.6223 	6.55874e-164
0.623 	5.34784e-164
0.6237 	4.13694e-164
0.6244 	2.92603e-164
0.6251 	1.85699e-164
0.6258 	1.63914e-164
0.6265 	1.42117e-164
0.6272 	1.203e-164
0.6279 	9.84822e-165
0.6286 	7.66647e-165
0.63 	3.30298e-165
0.6307 	2.92002e-165
0.6314 	2.53694e-165
0.6321 	2.1534e-165
0.6328 	1.76986e-165
0.6335 	1.38632e-165
0.6342 	1.00278e-165
0.6349 	6.19239e-166
0.6356 	5.08096e-166
0.6363 	4.42345e-166
0.637 	3.76499e-166
0.6377 	3.10653e-166
0.6384 	2.44807e-166
0.6391 	1.78961e-166
0.6398 	1.13115e-166
0.6405 	8.64231e-167
0.6412 	7.53921e-167
0.6419 	6.43448e-167
0.6426 	5.32961e-167
0.6433 	4.22475e-167
0.644 	3.11988e-167
0.6447 	2.01502e-167
0.6454 	1.43805e-167
0.6461 	1.25701e-167
0.6468 	1.07573e-167
0.6475 	8.94393e-168
0.6482 	7.13053e-168
0.6489 	5.31713e-168
0.6496 	3.50373e-168
0.6503 	2.34283e-168
0.651 	2.05194e-168
0.6517 	1.76074e-168
0.6524 	1.46936e-168
0.6531 	1.17798e-168
0.6545 	5.95215e-169
0.6552 	3.74002e-169
0.6559 	3.28208e-169
0.6566 	2.82374e-169
0.6573 	2.365e-169
0.658 	1.90627e-169
0.6587 	1.44753e-169
0.6601 	5.85493e-170
0.6608 	5.14798e-170
0.6615 	4.44059e-170
0.6622 	3.73238e-170
0.6629 	3.02417e-170
0.6636 	2.31597e-170
0.6643 	1.60776e-170
0.665 	8.99552e-171
0.6657 	7.92446e-171
0.6664 	6.85298e-171
0.6671 	5.77995e-171
0.6678 	4.70692e-171
0.6685 	3.6339e-171
0.6692 	2.56087e-171
0.6699 	1.48784e-171
0.6706 	1.19795e-171
0.6713 	1.03855e-171
0.672 	8.78874e-172
0.6727 	7.19198e-172
0.6734 	5.59523e-172
0.6741 	3.99847e-172
0.6748 	2.40172e-172
0.6755 	1.77903e-172
0.6762 	1.54597e-172
0.6769 	1.31248e-172
0.6776 	1.07897e-172
0.6783 	8.45453e-173
0.679 	6.11938e-173
0.6797 	3.78423e-173
0.6804 	2.59212e-173
0.6811 	2.25727e-173
0.6818 	1.92189e-173
0.6825 	1.58638e-173
0.6839 	9.15347e-174
0.6846 	5.79831e-174
0.6853 	3.67944e-174
0.686 	3.20896e-174
0.6867 	2.73787e-174
0.6874 	2.26643e-174
0.6881 	1.79498e-174
0.6888 	1.32354e-174
0.6895 	8.521e-175
0.6902 	4.97234e-175
0.6909 	4.33806e-175
0.6916 	3.70311e-175
0.6923 	3.0675e-175
0.693 	2.43188e-175
0.6937 	1.79627e-175
0.6944 	1.16065e-175
0.6951 	6.05768e-176
0.6958 	5.35253e-176
0.6965 	4.64684e-176
0.6979 	3.23353e-176
0.6986 	2.52687e-176
0.6993 	1.82021e-176
0.7 	1.11355e-176
