0 	1
0.0007 	1
0.0014 	1
0.0021 	1
0.0028 	1
0.0035 	1
0.0042 	1
0.0049 	1
0.0056 	1
0.0063 	1
0.007 	1
0.0077 	1
0.0084 	1
0.0091 	1
0.0098 	1
0.0105 	1
0.0112 	1
0.0119 	1
0.0126 	1
0.0133 	1
0.014 	1
0.0147 	1
0.0154 	1
0.0161 	1
0.0168 	1
0.0175 	1
0.0182 	1
0.0189 	1
0.0196 	1
0.0203 	1
0.021 	1
0.0217 	1
0.0224 	1
0.0231 	1
0.0238 	1
0.0245 	1
0.0252 	1
0.0259 	1
0.0266 	1
0.0273 	1
0.028 	1
0.0287 	1
0.0294 	1
0.0301 	1
0.0308 	1
0.0315 	1
0.0322 	1
0.0329 	1
0.0336 	1
0.0343 	1
0.035 	1
0.0357 	1
0.0364 	1
0.0371 	1
0.0378 	1
0.0385 	1
0.0392 	1
0.0399 	1
0.0406 	1
0.0413 	1
0.042 	1
0.0427 	1
0.0434 	1
0.0441 	1
0.0448 	1
0.0455 	1
0.0462 	1
0.0469 	1
0.0476 	1
0.0483 	1
0.049 	1
0.0497 	1
0.0504 	1
0.0511 	1
0.0518 	1
0.0525 	1
0.0532 	1
0.0539 	1
0.0546 	1
0.0553 	1
0.056 	1
0.0567 	1
0.0574 	1
0.0581 	1
0.0588 	1
0.0595 	1
0.0602 	1
0.0609 	1
0.0616 	1
0.0623 	1
0.063 	1
0.0637 	1
0.0644 	1
0.0651 	1
0.0658 	1
0.0665 	1
0.0672 	1
0.0679 	1
0.0686 	1
0.0693 	1
0.07 	1
0.0707 	1
0.0714 	1
0.0721 	1
0.0728 	1
0.0735 	1
0.0742 	1
0.0749 	1
0.0756 	1
0.0763 	1
0.077 	1
0.0777 	1
0.0784 	1
0.0791 	1
0.0798 	1
0.0805 	1
0.0812 	1
0.0819 	1
0.0826 	1
0.0833 	1
0.084 	1
0.0847 	1
0.0854 	1
0.0861 	1
0.0868 	1
0.0875 	1
0.0882 	1
0.0889 	1
0.0896 	1
0.0903 	1
0.091 	1
0.0917 	1
0.0924 	1
0.0931 	1
0.0938 	1
0.0945 	1
0.0952 	1
0.0959 	1
0.0966 	1
0.0973 	1
0.098 	1
0.0987 	1
0.0994 	1
0.1001 	1
0.1008 	1
0.1015 	1
0.1022 	1
0.1029 	1
0.1036 	1
0.1043 	1
0.105 	1
0.1057 	1
0.1064 	1
0.1071 	1
0.1078 	1
0.1085 	1
0.1092 	1
0.1099 	1
0.1106 	1
0.1113 	1
0.112 	1
0.1127 	1
0.1134 	1
0.1141 	1
0.1148 	1
0.1155 	1
0.1162 	1
0.1169 	1
0.1176 	1
0.1183 	1
0.119 	1
0.1197 	1
0.1204 	1
0.1211 	1
0.1218 	1
0.1225 	1
0.1232 	1
0.1239 	1
0.1246 	1
0.1253 	1
0.126 	1
0.1267 	1
0.1274 	1
0.1281 	1
0.1288 	1
0.1295 	1
0.1302 	1
0.1309 	1
0.1316 	1
0.1323 	1
0.133 	1
0.1337 	1
0.1344 	1
0.1351 	1
0.1358 	1
0.1365 	1
0.1372 	1
0.1379 	1
0.1386 	1
0.1393 	1
0.14 	1
0.1407 	1
0.1414 	1
0.1421 	1
0.1428 	1
0.1435 	1
0.1442 	1
0.1449 	1
0.1456 	1
0.1463 	1
0.147 	1
0.1477 	1
0.1484 	1
0.1491 	1
0.1498 	1
0.1505 	1
0.1512 	1
0.1519 	1
0.1526 	1
0.1533 	1
0.154 	1
0.1547 	1
0.1554 	1
0.1561 	1
0.1568 	1
0.1575 	1
0.1582 	1
0.1589 	1
0.1596 	1
0.1603 	1
0.161 	1
0.1617 	1
0.1624 	1
0.1631 	1
0.1638 	1
0.1645 	1
0.1652 	1
0.1659 	1
0.1666 	1
0.1673 	1
0.168 	1
0.1687 	1
0.1694 	1
0.1701 	1
0.1708 	1
0.1715 	1
0.1722 	1
0.1729 	1
0.1736 	1
0.1743 	1
0.175 	1
0.1757 	1
0.1764 	1
0.1771 	1
0.1778 	1
0.1785 	1
0.1792 	1
0.1799 	1
0.1806 	1
0.1813 	1
0.182 	1
0.1827 	1
0.1834 	1
0.1841 	1
0.1848 	1
0.1855 	1
0.1862 	1
0.1869 	1
0.1876 	1
0.1883 	1
0.189 	1
0.1897 	1
0.1904 	1
0.1911 	1
0.1918 	1
0.1925 	1
0.1932 	1
0.1939 	1
0.1946 	1
0.1953 	1
0.196 	1
0.1967 	1
0.1974 	1
0.1981 	1
0.1988 	1
0.1995 	1
0.2002 	1
0.2009 	1
0.2016 	1
0.2023 	1
0.203 	1
0.2037 	1
0.2044 	1
0.2051 	1
0.2058 	1
0.2065 	1
0.2072 	1
0.2079 	1
0.2086 	1
0.2093 	1
0.21 	1
0.2107 	1
0.2114 	1
0.2121 	1
0.2128 	1
0.2135 	1
0.2142 	1
0.2149 	1
0.2156 	1
0.2163 	1
0.217 	1
0.2177 	1
0.2184 	1
0.2191 	1
0.2198 	1
0.2205 	1
0.2212 	1
0.2219 	1
0.2226 	1
0.2233 	1
0.224 	1
0.2247 	1
0.2254 	1
0.2261 	1
0.2268 	1
0.2275 	1
0.2282 	1
0.2289 	1
0.2296 	1
0.2303 	1
0.231 	1
0.2317 	1
0.2324 	1
0.2331 	1
0.2338 	1
0.2345 	1
0.2352 	1
0.2359 	1
0.2366 	1
0.2373 	1
0.238 	1
0.2387 	1
0.2394 	0.999999
0.2401 	0.999999
0.2408 	0.999999
0.2415 	0.999998
0.2422 	0.999997
0.2429 	0.999996
0.2436 	0.999996
0.2443 	0.999995
0.245 	0.999994
0.2457 	0.999986
0.2464 	0.999978
0.2471 	0.99997
0.2478 	0.999963
0.2485 	0.999955
0.2492 	0.999947
0.2499 	0.999939
0.2506 	0.999855
0.2513 	0.999758
0.252 	0.999662
0.2527 	0.999565
0.2534 	0.999468
0.2541 	0.999372
0.2548 	0.999275
0.2555 	0.997961
0.2562 	0.996158
0.2569 	0.994356
0.2576 	0.992554
0.2583 	0.990752
0.259 	0.988949
0.2597 	0.987147
0.2604 	0.971212
0.2611 	0.944666
0.2618 	0.918121
0.2625 	0.891575
0.2632 	0.865029
0.2639 	0.838483
0.2646 	0.811938
0.2653 	0.770711
0.266 	0.709937
0.2667 	0.649163
0.2674 	0.588389
0.2681 	0.527615
0.2688 	0.466841
0.2695 	0.406067
0.2702 	0.35034
0.2709 	0.307259
0.2716 	0.264179
0.2723 	0.221099
0.273 	0.178019
0.2737 	0.134939
0.2744 	0.091859
0.2751 	0.0538849
0.2758 	0.0464709
0.2765 	0.0390569
0.2772 	0.031643
0.2779 	0.0242292
0.2786 	0.0168153
0.2793 	0.0094014
0.28 	0.00199003
0.2807 	0.00171311
0.2814 	0.00143622
0.2821 	0.00115934
0.2828 	0.000882463
0.2835 	0.000605583
0.2842 	0.000328703
0.2849 	5.18226e-05
0.2856 	1.08814e-05
0.2863 	9.15165e-06
0.287 	7.42197e-06
0.2877 	5.69229e-06
0.2884 	3.9626e-06
0.2891 	2.23292e-06
0.2898 	5.03238e-07
0.2905 	8.68038e-09
0.2912 	7.33139e-09
0.2919 	5.98241e-09
0.2926 	4.63343e-09
0.2933 	3.28446e-09
0.294 	1.93548e-09
0.2947 	5.86502e-10
0.2954 	8.83633e-12
0.2961 	8.83204e-12
0.2968 	8.82704e-12
0.2975 	8.82184e-12
0.2982 	8.81663e-12
0.2989 	8.81143e-12
0.2996 	8.80623e-12
0.3003 	8.76074e-12
0.301 	8.66143e-12
0.3017 	8.56176e-12
0.3024 	8.46189e-12
0.3031 	8.36202e-12
0.3038 	8.26215e-12
0.3045 	8.16228e-12
0.3052 	7.96704e-12
0.3059 	7.53357e-12
0.3066 	7.10026e-12
0.3073 	6.66712e-12
0.308 	6.23398e-12
0.3087 	5.80084e-12
0.3094 	5.3677e-12
0.3101 	4.92899e-12
0.3108 	4.45768e-12
0.3115 	3.98671e-12
0.3122 	3.51637e-12
0.3129 	3.04603e-12
0.3136 	2.57569e-12
0.3143 	2.10535e-12
0.315 	1.63508e-12
0.3157 	1.43368e-12
0.3164 	1.23244e-12
0.3171 	1.03168e-12
0.3178 	8.30927e-13
0.3185 	6.30169e-13
0.3192 	4.29411e-13
0.3199 	2.28653e-13
0.3206 	1.76632e-13
0.3213 	1.49338e-13
0.322 	1.22145e-13
0.3227 	9.49518e-14
0.3234 	6.77587e-14
0.3241 	4.05657e-14
0.3248 	1.33726e-14
0.3255 	5.05153e-15
0.3262 	4.26589e-15
0.3269 	3.48384e-15
0.3276 	2.70207e-15
0.3283 	1.9203e-15
0.329 	1.13853e-15
0.3297 	3.56753e-16
0.3304 	2.02179e-17
0.3311 	1.71277e-17
0.3318 	1.40516e-17
0.3325 	1.09793e-17
0.3332 	7.90695e-18
0.3339 	4.83463e-18
0.3346 	1.7623e-18
0.3353 	7.30472e-21
0.336 	6.21113e-21
0.3367 	5.12208e-21
0.3374 	4.03556e-21
0.3381 	2.94905e-21
0.3388 	1.86253e-21
0.3395 	7.76012e-22
0.3402 	2.98416e-25
0.3409 	2.5468e-25
0.3416 	2.11083e-25
0.3423 	1.67624e-25
0.343 	1.24165e-25
0.3437 	8.07059e-26
0.3444 	3.72469e-26
0.3451 	1.14799e-29
0.3458 	9.83215e-30
0.3465 	8.18799e-30
0.3472 	6.55036e-30
0.3479 	4.91273e-30
0.3486 	3.2751e-30
0.3493 	1.63747e-30
0.35 	4.1845e-34
0.3507 	3.59602e-34
0.3514 	3.00829e-34
0.3521 	2.42333e-34
0.3528 	1.83838e-34
0.3535 	1.25342e-34
0.3542 	6.6846e-35
0.3549 	8.35022e-36
0.3556 	1.2568e-38
0.3563 	1.05594e-38
0.357 	8.56165e-39
0.3577 	6.56388e-39
0.3584 	4.5661e-39
0.3591 	2.56833e-39
0.3598 	5.7056e-40
0.3605 	4.24169e-43
0.3612 	3.5788e-43
0.3619 	2.91932e-43
0.3626 	2.2601e-43
0.3633 	1.60088e-43
0.364 	9.41662e-44
0.3647 	2.82443e-44
0.3654 	1.39681e-47
0.3661 	1.18333e-47
0.3668 	9.70734e-48
0.3675 	7.5838e-48
0.3682 	5.46026e-48
0.3689 	3.33672e-48
0.3696 	1.21319e-48
0.3703 	4.52125e-52
0.371 	3.84517e-52
0.3717 	3.17126e-52
0.3724 	2.49855e-52
0.3731 	1.82584e-52
0.3738 	1.15313e-52
0.3745 	4.80421e-53
0.3752 	1.44218e-56
0.3759 	1.23108e-56
0.3766 	1.02048e-56
0.3773 	8.10373e-57
0.378 	6.0027e-57
0.3787 	3.90166e-57
0.3794 	1.80062e-57
0.3801 	4.52557e-61
0.3808 	3.87683e-61
0.3815 	3.22913e-61
0.3822 	2.58328e-61
0.3829 	1.93744e-61
0.3836 	1.2916e-61
0.3843 	6.45756e-62
0.385 	1.39205e-65
0.3857 	1.19653e-65
0.3864 	1.0012e-65
0.3871 	8.06515e-66
0.3878 	6.11832e-66
0.3885 	4.1715e-66
0.3892 	2.22467e-66
0.3899 	2.77849e-67
0.3906 	3.60833e-70
0.3913 	3.03244e-70
0.392 	2.45872e-70
0.3927 	1.885e-70
0.3934 	1.31128e-70
0.3941 	7.37554e-71
0.3948 	1.63832e-71
0.3955 	9.49729e-75
0.3962 	7.21771e-75
0.3969 	5.52188e-75
0.3976 	3.87095e-75
0.3983 	2.22002e-75
0.399 	5.69091e-76
0.3997 	-1.08184e-75
0.4004 	-2.04176e-75
0.4011 	-2.48471e-75
0.4018 	-2.57967e-75
0.4025 	-2.57972e-75
0.4032 	-2.57978e-75
0.4039 	-2.57983e-75
0.4046 	-2.57989e-75
0.4053 	-2.61291e-75
0.406 	-2.68997e-75
0.4067 	-2.7175e-75
0.4074 	-2.7175e-75
0.4081 	-2.71751e-75
0.4088 	-2.71752e-75
0.4095 	-2.71753e-75
0.4102 	-2.6735e-75
0.4109 	-2.51919e-75
0.4116 	-2.44204e-75
0.4123 	-2.44204e-75
0.413 	-2.44204e-75
0.4137 	-2.44205e-75
0.4144 	-2.44205e-75
0.4151 	-2.40282e-75
0.4158 	-2.12755e-75
0.4165 	-1.95059e-75
0.4172 	-1.95058e-75
0.4179 	-1.95058e-75
0.4186 	-1.95058e-75
0.4193 	-1.95058e-75
0.42 	-1.95062e-75
0.4207 	-1.64734e-75
0.4214 	-1.40899e-75
0.4221 	-1.40899e-75
0.4228 	-1.40899e-75
0.4235 	-1.40898e-75
0.4242 	-1.40898e-75
0.4249 	-1.40897e-75
0.4256 	-1.17901e-75
0.4263 	-9.29784e-76
0.427 	-9.29779e-76
0.4277 	-9.29774e-76
0.4284 	-9.29769e-76
0.4291 	-9.29764e-76
0.4298 	-9.29759e-76
0.4305 	-7.83745e-76
0.4312 	-5.7923e-76
0.4319 	-5.64617e-76
0.4326 	-5.64613e-76
0.4333 	-5.64609e-76
0.434 	-5.64604e-76
0.4347 	-5.646e-76
0.4354 	-4.85519e-76
0.4361 	-3.47048e-76
0.4368 	-3.17373e-76
0.4375 	-3.17369e-76
0.4382 	-3.17366e-76
0.4389 	-3.17362e-76
0.4396 	-3.17359e-76
0.4403 	-2.81039e-76
0.441 	-1.96232e-76
0.4417 	-1.65942e-76
0.4424 	-1.65939e-76
0.4431 	-1.65937e-76
0.4438 	-1.65934e-76
0.4445 	-1.65932e-76
0.4452 	-1.52363e-76
0.4459 	-1.04821e-76
0.4466 	-8.10497e-77
0.4473 	-8.10482e-77
0.448 	-8.10467e-77
0.4487 	-8.10452e-77
0.4494 	-8.10437e-77
0.4501 	-7.7536e-77
0.4508 	-5.29332e-77
0.4515 	-3.71169e-77
0.4522 	-3.7116e-77
0.4529 	-3.71151e-77
0.4536 	-3.71143e-77
0.4543 	-3.71134e-77
0.455 	-3.71131e-77
0.4557 	-2.52857e-77
0.4564 	-1.599e-77
0.4571 	-1.59895e-77
0.4578 	-1.59891e-77
0.4585 	-1.59886e-77
0.4592 	-1.59881e-77
0.4599 	-1.59877e-77
0.4606 	-1.14342e-77
0.4613 	-6.4993e-78
0.462 	-6.49907e-78
0.4627 	-6.49885e-78
0.4634 	-6.49862e-78
0.4641 	-6.4984e-78
0.4648 	-6.49817e-78
0.4655 	-4.89896e-78
0.4662 	-2.6591e-78
0.4669 	-2.49901e-78
0.4676 	-2.49891e-78
0.4683 	-2.49881e-78
0.469 	-2.4987e-78
0.4697 	-2.4986e-78
0.4704 	-1.99083e-78
0.4711 	-1.1018e-78
0.4718 	-9.11258e-79
0.4725 	-9.11214e-79
0.4732 	-9.11169e-79
0.4739 	-9.11125e-79
0.4746 	-9.11081e-79
0.4753 	-7.68284e-79
0.476 	-4.34894e-79
0.4767 	-3.15815e-79
0.4774 	-3.15797e-79
0.4781 	-3.15779e-79
0.4788 	-3.15761e-79
0.4795 	-3.15743e-79
0.4802 	-2.81925e-79
0.4809 	-1.63469e-79
0.4816 	-1.04238e-79
0.4823 	-1.04231e-79
0.483 	-1.04224e-79
0.4837 	-1.04218e-79
0.4844 	-1.04211e-79
0.4851 	-9.8507e-80
0.4858 	-5.85286e-80
0.4865 	-3.28274e-80
0.4872 	-3.2825e-80
0.4879 	-3.28225e-80
0.4886 	-3.28201e-80
0.4893 	-3.28176e-80
0.49 	-3.28156e-80
0.4907 	-1.99742e-80
0.4914 	-9.88135e-81
0.4921 	-9.88051e-81
0.4928 	-9.87968e-81
0.4935 	-9.87884e-81
0.4942 	-9.87801e-81
0.4949 	-9.87717e-81
0.4956 	-6.50355e-81
0.4963 	-2.84749e-81
0.497 	-2.84722e-81
0.4977 	-2.84696e-81
0.4984 	-2.84669e-81
0.4991 	-2.84642e-81
0.4998 	-2.84615e-81
0.5005 	-2.02256e-81
0.5012 	-8.69115e-82
0.5019 	-7.8665e-82
0.5026 	-7.86567e-82
0.5033 	-7.86484e-82
0.504 	-7.86401e-82
0.5047 	-7.86318e-82
0.5054 	-6.01525e-82
0.5061 	-2.78015e-82
0.5068 	-2.08673e-82
0.5075 	-2.08648e-82
0.5082 	-2.08624e-82
0.5089 	-2.086e-82
0.5096 	-2.08575e-82
0.5103 	-1.71301e-82
0.511 	-8.42942e-83
0.5117 	-5.3216e-83
0.5124 	-5.32092e-83
0.5131 	-5.32024e-83
0.5138 	-5.31956e-83
0.5145 	-5.31887e-83
0.5152 	-4.67708e-83
0.5159 	-2.42996e-83
0.5166 	-1.30631e-83
0.5173 	-1.30613e-83
0.518 	-1.30594e-83
0.5187 	-1.30576e-83
0.5194 	-1.30558e-83
0.5201 	-1.22587e-83
0.5208 	-6.67796e-84
0.5215 	-3.09015e-84
0.5222 	-3.08968e-84
0.5229 	-3.08921e-84
0.5236 	-3.08873e-84
0.5243 	-3.08826e-84
0.525 	-3.08782e-84
0.5257 	-1.75375e-84
0.5264 	-7.05206e-85
0.5271 	-7.0509e-85
0.5278 	-7.04973e-85
0.5285 	-7.04856e-85
0.5292 	-7.04739e-85
0.5299 	-7.04622e-85
0.5306 	-4.41048e-85
0.5313 	-1.55419e-85
0.532 	-1.55391e-85
0.5327 	-1.55363e-85
0.5334 	-1.55336e-85
0.5341 	-1.55308e-85
0.5348 	-1.5528e-85
0.5355 	-1.0642e-85
0.5362 	-3.79976e-86
0.5369 	-3.31043e-86
0.5376 	-3.3098e-86
0.5383 	-3.30916e-86
0.539 	-3.30852e-86
0.5397 	-3.30788e-86
0.5404 	-2.46788e-86
0.5411 	-9.97556e-87
0.5418 	-6.82374e-87
0.5425 	-6.82233e-87
0.5432 	-6.82091e-87
0.5439 	-6.81949e-87
0.5446 	-6.81808e-87
0.5453 	-5.50882e-87
0.546 	-2.45352e-87
0.5467 	-1.36214e-87
0.5474 	-1.36184e-87
0.5481 	-1.36154e-87
0.5488 	-1.36123e-87
0.5495 	-1.36093e-87
0.5502 	-1.18533e-87
0.5509 	-5.70827e-88
0.5516 	-2.63542e-88
0.5523 	-2.6348e-88
0.553 	-2.63417e-88
0.5537 	-2.63354e-88
0.5544 	-2.63292e-88
0.5551 	-2.46171e-88
0.5558 	-1.26436e-88
0.5565 	-4.946e-89
0.5572 	-4.94475e-89
0.5579 	-4.94349e-89
0.5586 	-4.94224e-89
0.5593 	-4.94098e-89
0.56 	-4.93978e-89
0.5607 	-2.67843e-89
0.5614 	-9.01089e-90
0.5621 	-9.00845e-90
0.5628 	-9.00602e-90
0.5635 	-9.00359e-90
0.5642 	-9.00115e-90
0.5649 	-8.99872e-90
0.5656 	-5.44535e-90
0.5663 	-1.59481e-90
0.567 	-1.59435e-90
0.5677 	-1.59389e-90
0.5684 	-1.59344e-90
0.5691 	-1.59298e-90
0.5698 	-1.59252e-90
0.5705 	-1.06533e-90
0.5712 	-3.27123e-91
0.5719 	-2.74316e-91
0.5726 	-2.74233e-91
0.5733 	-2.74149e-91
0.574 	-2.74066e-91
0.5747 	-2.73982e-91
0.5754 	-2.01007e-91
0.5761 	-7.3293e-92
0.5768 	-4.59141e-92
0.5775 	-4.58993e-92
0.5782 	-4.58845e-92
0.5789 	-4.58697e-92
0.5796 	-4.58549e-92
0.5803 	-3.66441e-92
0.581 	-1.51566e-92
0.5817 	-7.48084e-93
0.5824 	-7.47828e-93
0.5831 	-7.47573e-93
0.5838 	-7.47317e-93
0.5845 	-7.47062e-93
0.5852 	-6.46469e-93
0.5859 	-2.94653e-93
0.5866 	-1.18723e-93
0.5873 	-1.1868e-93
0.588 	-1.18637e-93
0.5887 	-1.18594e-93
0.5894 	-1.18552e-93
0.5901 	-1.10519e-93
0.5908 	-5.4426e-94
0.5915 	-1.83638e-94
0.5922 	-1.83568e-94
0.5929 	-1.83498e-94
0.5936 	-1.83428e-94
0.5943 	-1.83358e-94
0.595 	-1.8329e-94
0.5957 	-9.6172e-95
0.5964 	-2.77003e-95
0.5971 	-2.76892e-95
0.5978 	-2.76781e-95
0.5985 	-2.76669e-95
0.5992 	-2.76558e-95
0.5999 	-2.76447e-95
0.6006 	-1.63336e-95
0.6013 	-4.07706e-96
0.602 	-4.07534e-96
0.6027 	-4.07361e-96
0.6034 	-4.07189e-96
0.6041 	-4.07017e-96
0.6048 	-4.06844e-96
0.6055 	-2.67546e-96
0.6062 	-7.2514e-97
0.6069 	-5.8559e-97
0.6076 	-5.85329e-97
0.6083 	-5.85068e-97
0.609 	-5.84808e-97
0.6097 	-5.84547e-97
0.6104 	-4.23785e-97
0.6111 	-1.42498e-97
0.6118 	-8.21919e-98
0.6125 	-8.21535e-98
0.6132 	-8.2115e-98
0.6139 	-8.20766e-98
0.6146 	-8.20381e-98
0.6153 	-6.50482e-98
0.616 	-2.5428e-98
0.6167 	-1.12744e-98
0.6174 	-1.12689e-98
0.6181 	-1.12633e-98
0.6188 	-1.12578e-98
0.6195 	-1.12523e-98
0.6202 	-9.69198e-99
0.6209 	-4.23905e-99
0.6216 	-1.51219e-99
0.6223 	-1.51141e-99
0.623 	-1.51063e-99
0.6237 	-1.50985e-99
0.6244 	-1.50907e-99
0.6251 	-1.40381e-99
0.6258 	-6.70117e-100
0.6265 	-1.98417e-100
0.6272 	-1.9831e-100
0.6279 	-1.98202e-100
0.6286 	-1.98095e-100
0.6293 	-1.97988e-100
0.63 	-1.97882e-100
0.6307 	-1.01351e-100
0.6314 	-2.54811e-101
0.6321 	-2.54667e-101
0.6328 	-2.54523e-101
0.6335 	-2.54378e-101
0.6342 	-2.54234e-101
0.6349 	-2.5409e-101
0.6356 	-1.47517e-101
0.6363 	-3.2043e-102
0.637 	-3.2024e-102
0.6377 	-3.2005e-102
0.6384 	-3.1986e-102
0.6391 	-3.1967e-102
0.6398 	-3.1948e-102
0.6405 	-2.07474e-102
0.6412 	-5.06737e-103
0.6419 	-3.94509e-103
0.6426 	-3.94265e-103
0.6433 	-3.9402e-103
0.644 	-3.93775e-103
0.6447 	-3.9353e-103
0.6454 	-2.8282e-103
0.6461 	-8.91578e-104
0.6468 	-4.76346e-104
0.6475 	-4.76037e-104
0.6482 	-4.75728e-104
0.6489 	-4.75419e-104
0.6496 	-4.7511e-104
0.6503 	-3.74545e-104
0.651 	-1.40141e-104
0.6517 	-5.64002e-105
0.6524 	-5.6362e-105
0.6531 	-5.63238e-105
0.6538 	-5.62856e-105
0.6545 	-5.62474e-105
0.6552 	-4.82806e-105
0.6559 	-2.04629e-105
0.6566 	-6.55173e-106
0.6573 	-6.5471e-106
0.658 	-6.54247e-106
0.6587 	-6.53784e-106
0.6594 	-6.5332e-106
0.6601 	-6.06758e-106
0.6608 	-2.82917e-106
0.6615 	-7.47144e-107
0.6622 	-7.46593e-107
0.6629 	-7.46042e-107
0.6636 	-7.45492e-107
0.6643 	-7.44941e-107
0.665 	-7.44394e-107
0.6657 	-3.74466e-107
0.6664 	-8.37105e-108
0.6671 	-8.36462e-108
0.6678 	-8.35819e-108
0.6685 	-8.35177e-108
0.6692 	-8.34534e-108
0.6699 	-8.33891e-108
0.6706 	-4.7795e-108
0.6713 	-9.23059e-109
0.672 	-9.22322e-109
0.6727 	-9.21585e-109
0.6734 	-9.20848e-109
0.6741 	-9.20111e-109
0.6748 	-9.19374e-109
0.6755 	-5.91814e-109
0.6762 	-1.33332e-109
0.6769 	-1.00506e-109
0.6776 	-1.00423e-109
0.6783 	-1.0034e-109
0.679 	-1.00257e-109
0.6797 	-1.00174e-109
0.6804 	-7.15751e-110
0.6811 	-2.15631e-110
0.6818 	-1.0839e-110
0.6825 	-1.08297e-110
0.6832 	-1.08205e-110
0.6839 	-1.08112e-110
0.6846 	-1.0802e-110
0.6853 	-8.48406e-111
0.686 	-3.08422e-111
0.6867 	-1.15504e-111
0.6874 	-1.15402e-111
0.6881 	-1.153e-111
0.6888 	-1.15198e-111
0.6895 	-1.15096e-111
0.6902 	-9.85777e-112
0.6909 	-4.09587e-112
0.6916 	-1.21436e-112
0.6923 	-1.21324e-112
0.693 	-1.21213e-112
0.6937 	-1.21102e-112
0.6944 	-1.20991e-112
0.6951 	-1.1306e-112
0.6958 	-5.81006e-113
0.6965 	-2.27656e-113
0.6972 	-2.27548e-113
0.6979 	-2.27439e-113
0.6986 	-2.27331e-113
0.6993 	-2.27223e-113
0.7 	-2.27116e-113
