0 	1
0.0007 	1
0.0014 	1
0.0021 	1
0.0028 	1
0.0035 	1
0.0042 	1
0.0049 	1
0.0056 	1
0.0063 	1
0.007 	1
0.0077 	1
0.0084 	1
0.0091 	1
0.0098 	1
0.0105 	1
0.0112 	1
0.0119 	1
0.0126 	1
0.0133 	1
0.014 	1
0.0147 	1
0.0154 	1
0.0161 	1
0.0168 	1
0.0175 	1
0.0182 	1
0.0189 	1
0.0196 	1
0.0203 	1
0.021 	1
0.0217 	1
0.0224 	1
0.0231 	1
0.0238 	1
0.0245 	1
0.0252 	1
0.0259 	1
0.0266 	1
0.0273 	1
0.028 	1
0.0287 	1
0.0294 	1
0.0301 	1
0.0308 	1
0.0315 	1
0.0322 	1
0.0329 	1
0.0336 	1
0.0343 	1
0.035 	1
0.0357 	1
0.0364 	1
0.0371 	1
0.0378 	1
0.0385 	1
0.0392 	1
0.0399 	1
0.0406 	1
0.0413 	1
0.042 	1
0.0427 	1
0.0434 	1
0.0441 	1
0.0448 	1
0.0455 	1
0.0462 	1
0.0469 	1
0.0476 	1
0.0483 	1
0.049 	1
0.0497 	1
0.0504 	1
0.0511 	1
0.0518 	1
0.0525 	1
0.0532 	1
0.0539 	1
0.0546 	1
0.0553 	1
0.056 	1
0.0567 	1
0.0574 	1
0.0581 	1
0.0588 	1
0.0595 	1
0.0602 	1
0.0609 	1
0.0616 	1
0.0623 	1
0.063 	1
0.0637 	1
0.0644 	1
0.0651 	1
0.0658 	1
0.0665 	1
0.0672 	1
0.0679 	1
0.0686 	1
0.0693 	1
0.07 	1
0.0707 	1
0.0714 	1
0.0721 	1
0.0728 	1
0.0735 	1
0.0742 	1
0.0749 	1
0.0756 	1
0.0763 	1
0.077 	1
0.0777 	1
0.0784 	1
0.0791 	1
0.0798 	1
0.0805 	1
0.0812 	1
0.0819 	1
0.0826 	1
0.0833 	1
0.084 	1
0.0847 	1
0.0854 	1
0.0861 	1
0.0868 	1
0.0875 	1
0.0882 	1
0.0889 	1
0.0896 	1
0.0903 	1
0.091 	1
0.0917 	1
0.0924 	1
0.0931 	1
0.0938 	1
0.0945 	1
0.0952 	1
0.0959 	1
0.0966 	1
0.0973 	1
0.098 	1
0.0987 	1
0.0994 	1
0.1001 	1
0.1008 	1
0.1015 	1
0.1022 	1
0.1029 	1
0.1036 	1
0.1043 	1
0.105 	1
0.1057 	1
0.1064 	1
0.1071 	1
0.1078 	1
0.1085 	1
0.1092 	1
0.1099 	1
0.1106 	1
0.1113 	1
0.112 	1
0.1127 	1
0.1134 	1
0.1141 	1
0.1148 	1
0.1155 	1
0.1162 	1
0.1169 	1
0.1176 	1
0.1183 	1
0.119 	1
0.1197 	1
0.1204 	1
0.1211 	1
0.1218 	1
0.1225 	1
0.1232 	1
0.1239 	1
0.1246 	1
0.1253 	1
0.126 	1
0.1267 	1
0.1274 	1
0.1281 	1
0.1288 	1
0.1295 	1
0.1302 	1
0.1309 	1
0.1316 	1
0.1323 	1
0.133 	1
0.1337 	1
0.1344 	1
0.1351 	1
0.1358 	1
0.1365 	1
0.1372 	1
0.1379 	1
0.1386 	1
0.1393 	1
0.14 	1
0.1407 	1
0.1414 	1
0.1421 	1
0.1428 	1
0.1435 	1
0.1442 	1
0.1449 	1
0.1456 	1
0.1463 	1
0.147 	1
0.1477 	1
0.1484 	1
0.1491 	1
0.1498 	1
0.1505 	1
0.1512 	1
0.1519 	1
0.1526 	1
0.1533 	1
0.154 	1
0.1547 	1
0.1554 	1
0.1561 	1
0.1568 	1
0.1575 	1
0.1582 	1
0.1589 	1
0.1596 	1
0.1603 	1
0.161 	1
0.1617 	1
0.1624 	1
0.1631 	1
0.1638 	1
0.1645 	1
0.1652 	1
0.1659 	1
0.1666 	1
0.1673 	1
0.168 	1
0.1687 	1
0.1694 	1
0.1701 	1
0.1708 	1
0.1715 	1
0.1722 	1
0.1729 	1
0.1736 	1
0.1743 	1
0.175 	1
0.1757 	1
0.1764 	1
0.1771 	1
0.1778 	1
0.1785 	1
0.1792 	1
0.1799 	1
0.1806 	1
0.1813 	1
0.182 	1
0.1827 	1
0.1834 	1
0.1841 	1
0.1848 	1
0.1855 	1
0.1862 	1
0.1869 	1
0.1876 	1
0.1883 	1
0.189 	1
0.1897 	1
0.1904 	1
0.1911 	1
0.1918 	1
0.1925 	1
0.1932 	1
0.1939 	1
0.1946 	1
0.1953 	1
0.196 	1
0.1967 	1
0.1974 	1
0.1981 	1
0.1988 	1
0.1995 	1
0.2002 	1
0.2009 	1
0.2016 	1
0.2023 	1
0.203 	1
0.2037 	1
0.2044 	1
0.2051 	1
0.2058 	1
0.2065 	1
0.2072 	1
0.2079 	1
0.2086 	1
0.2093 	1
0.21 	1
0.2107 	1
0.2114 	1
0.2121 	1
0.2128 	1
0.2135 	1
0.2142 	1
0.2149 	1
0.2156 	1
0.2163 	1
0.217 	1
0.2177 	1
0.2184 	1
0.2191 	1
0.2198 	1
0.2205 	1
0.2212 	1
0.2219 	1
0.2226 	1
0.2233 	1
0.224 	1
0.2247 	1
0.2254 	1
0.2261 	1
0.2268 	0.999996
0.2275 	0.999991
0.2282 	0.999987
0.2289 	0.999981
0.2296 	0.999971
0.2303 	0.999961
0.231 	0.999951
0.2317 	0.999639
0.2324 	0.999256
0.2331 	0.998886
0.2338 	0.998482
0.2345 	0.997641
0.2352 	0.996803
0.2359 	0.995978
0.2366 	0.990449
0.2373 	0.981841
0.238 	0.97379
0.2387 	0.965738
0.2394 	0.948942
0.2401 	0.931494
0.2408 	0.914171
0.2415 	0.883912
0.2422 	0.832202
0.2429 	0.781702
0.2436 	0.731201
0.2443 	0.652229
0.245 	0.565493
0.2457 	0.478102
0.2464 	0.396785
0.2471 	0.336896
0.2478 	0.276023
0.2485 	0.21515
0.2492 	0.172506
0.2499 	0.139987
0.2506 	0.106674
0.2513 	0.0744763
0.252 	0.0574995
0.2527 	0.0383786
0.2534 	0.0192577
0.2541 	0.0088816
0.2548 	0.00725045
0.2555 	0.00551482
0.2562 	0.00373739
0.2569 	0.00288273
0.2576 	0.00181224
0.2583 	0.000741753
0.259 	5.09152e-05
0.2597 	4.34595e-05
0.2604 	3.44598e-05
0.2611 	2.4302e-05
0.2618 	1.94872e-05
0.2625 	1.24985e-05
0.2632 	5.50982e-06
0.2639 	1.83981e-08
0.2646 	1.71708e-08
0.2653 	1.47858e-08
0.266 	1.08574e-08
0.2667 	8.94344e-09
0.2674 	6.05161e-09
0.2681 	2.91399e-09
0.2688 	4.8657e-13
0.2695 	4.70764e-13
0.2702 	4.28666e-13
0.2709 	3.20836e-13
0.2716 	2.57767e-13
0.2723 	1.85708e-13
0.273 	9.60614e-14
0.2737 	6.41485e-15
0.2744 	1.1262e-17
0.2751 	1.09077e-17
0.2758 	8.29635e-18
0.2765 	6.48513e-18
0.2772 	4.96833e-18
0.2779 	2.72468e-18
0.2786 	4.81021e-19
0.2793 	2.38058e-22
0.28 	2.47316e-22
0.2807 	1.90776e-22
0.2814 	1.44939e-22
0.2821 	1.17922e-22
0.2828 	6.78961e-23
0.2835 	1.78706e-23
0.2842 	4.36793e-27
0.2849 	4.68688e-27
0.2856 	3.81439e-27
0.2863 	2.8125e-27
0.287 	2.42476e-27
0.2877 	1.45488e-27
0.2884 	4.85008e-28
0.2891 	7.07113e-32
0.2898 	7.80715e-32
0.2905 	6.73165e-32
0.2912 	4.93155e-32
0.2919 	4.38637e-32
0.2926 	2.7267e-32
0.2933 	1.06703e-32
0.294 	1.02561e-36
0.2947 	1.16141e-36
0.2954 	1.06413e-36
0.2961 	7.92015e-37
0.2968 	7.08737e-37
0.2975 	4.54324e-37
0.2982 	1.9991e-37
0.2989 	1.35033e-41
0.2996 	1.56503e-41
0.3003 	1.52715e-41
0.301 	1.15252e-41
0.3017 	1.00521e-41
0.3024 	6.83069e-42
0.3031 	3.28894e-42
0.3038 	1.62931e-46
0.3045 	1.93125e-46
0.3052 	2.01134e-46
0.3059 	1.53682e-46
0.3066 	1.28833e-46
0.3073 	9.37874e-47
0.308 	4.85117e-47
0.3087 	3.23597e-48
0.3094 	2.19667e-51
0.3101 	2.44774e-51
0.3108 	1.89127e-51
0.3115 	1.52568e-51
0.3122 	1.18514e-51
0.3129 	6.49922e-52
0.3136 	1.1471e-52
0.3143 	2.30756e-56
0.315 	2.75873e-56
0.3157 	2.15337e-56
0.3164 	1.6735e-56
0.3171 	1.38229e-56
0.3178 	7.95872e-57
0.3185 	2.09456e-57
0.3192 	2.23512e-61
0.3199 	2.71873e-61
0.3206 	2.26507e-61
0.3213 	1.69762e-61
0.322 	1.48635e-61
0.3227 	8.91816e-62
0.3234 	2.97285e-62
0.3241 	1.98922e-66
0.3248 	2.46255e-66
0.3255 	2.19294e-66
0.3262 	1.62617e-66
0.3269 	1.46822e-66
0.3276 	9.12684e-67
0.3283 	3.57147e-67
0.329 	1.62044e-71
0.3297 	2.04179e-71
0.3304 	1.94593e-71
0.3311 	1.46218e-71
0.3318 	1.32692e-71
0.3325 	8.50594e-72
0.3332 	3.74269e-72
0.3339 	1.20442e-76
0.3346 	1.54465e-76
0.3353 	1.57715e-76
0.336 	1.19932e-76
0.3367 	1.06137e-76
0.3374 	7.20138e-77
0.3381 	3.46738e-77
0.3388 	8.15075e-82
0.3395 	1.06401e-81
0.3402 	1.16485e-81
0.3409 	8.95483e-82
0.3416 	7.59531e-82
0.3423 	5.53057e-82
0.343 	2.86067e-82
0.3437 	1.90768e-83
0.3444 	6.66654e-87
0.3451 	7.83107e-87
0.3458 	6.08037e-87
0.3465 	4.95051e-87
0.3472 	3.851e-87
0.3479 	2.11186e-87
0.3486 	3.7271e-88
0.3493 	3.79783e-92
0.35 	4.79002e-92
0.3507 	3.75339e-92
0.3514 	2.93774e-92
0.3521 	2.43157e-92
0.3528 	1.4e-92
0.3535 	3.68436e-93
0.3542 	1.96703e-97
0.3549 	2.50836e-97
0.3556 	2.10647e-97
0.3563 	1.58715e-97
0.357 	1.39276e-97
0.3577 	8.35661e-98
0.3584 	2.7856e-98
0.3591 	9.26183e-103
0.3598 	1.19441e-102
0.3605 	1.07488e-102
0.3612 	8.00234e-103
0.3619 	7.23959e-103
0.3626 	4.5003e-103
0.3633 	1.76101e-103
0.364 	3.96377e-108
0.3647 	5.17145e-108
0.3654 	4.987e-108
0.3661 	3.75845e-108
0.3668 	3.4159e-108
0.3675 	2.18969e-108
0.3682 	9.63474e-109
0.3689 	1.54134e-113
0.3696 	2.03554e-113
0.3703 	2.10352e-113
0.371 	1.6032e-113
0.3717 	1.42407e-113
0.3724 	9.63556e-114
0.3731 	4.63938e-114
0.3738 	5.44334e-119
0.3745 	7.28156e-119
0.3752 	8.06476e-119
0.3759 	6.21041e-119
0.3766 	5.28235e-119
0.3773 	3.83707e-119
0.378 	1.9847e-119
0.3787 	1.32336e-120
0.3794 	2.36627e-124
0.3801 	2.80961e-124
0.3808 	2.18435e-124
0.3815 	1.78226e-124
0.3822 	1.38329e-124
0.3829 	7.58582e-125
0.3836 	1.33874e-125
0.3843 	6.98185e-130
0.385 	8.89088e-130
0.3857 	6.97377e-130
0.3864 	5.46732e-130
0.3871 	4.51525e-130
0.3878 	2.5997e-130
0.3885 	6.84146e-131
0.3892 	1.86914e-135
0.3899 	2.4018e-135
0.3906 	2.02003e-135
0.3913 	1.524e-135
0.392 	1.33433e-135
0.3927 	8.00598e-136
0.3934 	2.6687e-136
0.3941 	4.53571e-141
0.3948 	5.88466e-141
0.3955 	5.30475e-141
0.3962 	3.95329e-141
0.3969 	3.56825e-141
0.3976 	2.21811e-141
0.3983 	8.67964e-142
0.399 	1.15637e-146
0.3997 	1.42877e-146
0.4004 	1.35361e-146
0.4011 	1.01777e-146
0.4018 	9.15489e-147
0.4025 	5.90571e-147
0.4032 	2.65653e-147
0.4039 	1.05668e-148
0.4046 	1.15344e-148
0.4053 	1.08802e-148
0.406 	8.06388e-149
0.4067 	6.87696e-149
0.4074 	4.72979e-149
0.4081 	2.44305e-149
0.4088 	3.24006e-150
0.4095 	3.85082e-150
0.4102 	4.00375e-150
0.4109 	3.0121e-150
0.4116 	2.48621e-150
0.4123 	1.82065e-150
0.413 	9.92967e-151
0.4137 	1.65285e-151
0.4144 	1.28833e-151
0.4151 	1.44913e-151
0.4158 	1.1098e-151
0.4165 	8.86729e-152
0.4172 	6.88459e-152
0.4179 	3.89627e-152
0.4186 	9.0796e-153
0.4193 	3.22153e-153
0.42 	3.91589e-153
0.4207 	3.03377e-153
0.4214 	2.33519e-153
0.4221 	1.92275e-153
0.4228 	1.13195e-153
0.4235 	3.41158e-154
0.4242 	6.94958e-155
0.4249 	8.62454e-155
0.4256 	7.16488e-155
0.4263 	5.32147e-155
0.427 	4.63825e-155
0.4277 	2.83161e-155
0.4284 	1.02496e-155
0.4291 	1.39954e-156
0.4298 	1.76605e-156
0.4305 	1.57545e-156
0.4312 	1.16202e-156
0.4319 	1.04247e-156
0.4326 	6.56559e-157
0.4333 	2.70653e-157
0.434 	2.50774e-158
0.4347 	3.2101e-158
0.4354 	3.07213e-158
0.4361 	2.3039e-158
0.4368 	2.07448e-158
0.4375 	1.34336e-158
0.4382 	6.12242e-159
0.4389 	4.037e-160
0.4396 	5.24171e-160
0.4403 	5.378e-160
0.441 	4.08972e-160
0.4417 	3.6229e-160
0.4424 	2.45568e-160
0.4431 	1.21329e-160
0.4438 	6.10166e-162
0.4445 	8.03645e-162
0.4452 	8.83682e-162
0.4459 	6.80112e-162
0.4466 	5.777e-162
0.4473 	4.19435e-162
0.448 	2.2126e-162
0.4487 	2.30849e-163
0.4494 	1.1656e-163
0.4501 	1.37373e-163
0.4508 	1.06833e-163
0.4515 	8.71484e-164
0.4522 	6.74895e-164
0.4529 	3.75823e-164
0.4536 	7.67521e-165
0.4543 	1.59758e-165
0.455 	2.01908e-165
0.4557 	1.58465e-165
0.4564 	1.24297e-165
0.4571 	1.0229e-165
0.4578 	5.96248e-166
0.4585 	1.696e-166
0.4592 	2.09422e-167
0.4599 	2.67278e-167
0.4606 	2.24759e-167
0.4613 	1.69731e-167
0.462 	1.47931e-167
0.4627 	8.96643e-168
0.4634 	3.13979e-168
0.4641 	2.64734e-169
0.4648 	3.41322e-169
0.4655 	3.07447e-169
0.4662 	2.29386e-169
0.4669 	2.05965e-169
0.4676 	1.29128e-169
0.4683 	5.22916e-170
0.469 	3.24769e-171
0.4697 	4.23212e-171
0.4704 	4.08269e-171
0.4711 	3.08288e-171
0.4718 	2.77977e-171
0.4725 	1.79496e-171
0.4732 	8.10143e-172
0.4739 	3.90125e-173
0.4746 	5.14167e-173
0.4753 	5.31208e-173
0.476 	4.05581e-173
0.4767 	3.60595e-173
0.4774 	2.43293e-173
0.4781 	1.19466e-173
0.4788 	4.59266e-175
0.4795 	6.12699e-175
0.4802 	6.78002e-175
0.4809 	5.22976e-175
0.4816 	4.45372e-175
0.4823 	3.22154e-175
0.483 	1.69227e-175
0.4837 	1.63008e-176
0.4844 	7.08973e-177
0.4851 	8.40527e-177
0.4858 	6.54507e-177
0.4865 	5.34861e-177
0.4872 	4.12886e-177
0.4879 	2.29211e-177
0.4886 	4.55357e-178
0.4893 	7.84404e-179
0.49 	9.96729e-179
0.4907 	7.8299e-179
0.4914 	6.15019e-179
0.4921 	5.0466e-179
0.4928 	2.93394e-179
0.4935 	8.21281e-180
0.4942 	8.15224e-181
0.4949 	1.04505e-180
0.4956 	8.79836e-181
0.4963 	6.65275e-181
0.497 	5.78256e-181
0.4977 	3.49625e-181
0.4984 	1.20993e-181
0.4991 	7.82674e-183
0.4998 	1.01279e-182
0.5005 	9.13456e-183
0.5012 	6.82333e-183
0.5019 	6.11158e-183
0.5026 	3.82217e-183
0.5033 	1.53277e-183
0.504 	6.85086e-185
0.5047 	8.95479e-185
0.5054 	8.64987e-185
0.5061 	6.53832e-185
0.5068 	5.88292e-185
0.5075 	3.7892e-185
0.5082 	1.69549e-185
0.5089 	5.41445e-187
0.5096 	7.15425e-187
0.5103 	7.40049e-187
0.511 	5.6553e-187
0.5117 	5.03172e-187
0.5124 	3.37781e-187
0.5131 	1.64577e-187
0.5138 	3.83546e-189
0.5145 	5.12745e-189
0.5152 	5.68016e-189
0.5159 	4.38465e-189
0.5166 	3.73675e-189
0.5173 	2.69043e-189
0.518 	1.40359e-189
0.5187 	1.16763e-190
0.5194 	3.28003e-191
0.5201 	3.89213e-191
0.5208 	3.03263e-191
0.5215 	2.48004e-191
0.5222 	1.90652e-191
0.5229 	1.05215e-191
0.5236 	1.97781e-192
0.5243 	1.86821e-193
0.525 	2.37542e-193
0.5257 	1.86701e-193
0.5264 	1.46753e-193
0.5271 	1.19979e-193
0.5278 	6.94077e-194
0.5285 	1.88368e-194
0.5292 	9.47356e-196
0.5299 	1.21488e-195
0.5306 	1.02326e-195
0.5313 	7.74268e-196
0.532 	6.70833e-196
0.5327 	4.03961e-196
0.5334 	1.37089e-196
0.5341 	4.28103e-198
0.5348 	5.54036e-198
0.5355 	4.99853e-198
0.5362 	3.73625e-198
0.5369 	3.33725e-198
0.5376 	2.08032e-198
0.5383 	8.23382e-199
0.539 	1.72333e-200
0.5397 	2.2523e-200
0.5404 	2.176e-200
0.5411 	1.64575e-200
0.5418 	1.47729e-200
0.5425 	9.49043e-201
0.5432 	4.20792e-201
0.5439 	6.15793e-203
0.5446 	8.13388e-203
0.5453 	8.41401e-203
0.546 	6.43305e-203
0.5467 	5.7253e-203
0.5474 	3.82656e-203
0.5481 	1.85225e-203
0.5488 	1.94222e-205
0.5495 	2.59509e-205
0.5502 	2.8744e-205
0.5509 	2.21982e-205
0.5516 	1.89245e-205
0.5523 	1.35743e-205
0.553 	7.04791e-206
0.5537 	5.21572e-207
0.5544 	7.3063e-208
0.5551 	8.66708e-208
0.5558 	6.75588e-208
0.5565 	5.5271e-208
0.5572 	4.23508e-208
0.5579 	2.32901e-208
0.5586 	4.22942e-209
0.5593 	1.84058e-210
0.56 	2.3393e-210
0.5607 	1.8393e-210
0.5614 	1.44642e-210
0.5621 	1.17915e-210
0.5628 	6.80398e-211
0.5635 	1.81644e-211
0.5642 	4.29227e-213
0.5649 	5.50243e-213
0.5656 	4.63575e-213
0.5663 	3.50956e-213
0.567 	3.03303e-213
0.5677 	1.82311e-213
0.5684 	6.13195e-214
0.5691 	9.64772e-216
0.5698 	1.24838e-215
0.5705 	1.12652e-215
0.5712 	8.42477e-216
0.5719 	7.50845e-216
0.5726 	4.67472e-216
0.5733 	1.84098e-216
0.574 	2.16513e-218
0.5747 	2.83002e-218
0.5754 	2.73473e-218
0.5761 	2.0693e-218
0.5768 	1.85393e-218
0.5775 	1.19015e-218
0.5782 	5.26359e-219
0.5789 	5.16258e-221
0.5796 	6.82164e-221
0.5803 	7.05847e-221
0.581 	5.39898e-221
0.5817 	4.80636e-221
0.5824 	3.2053e-221
0.5831 	1.5505e-221
0.5838 	1.42318e-223
0.5845 	1.90261e-223
0.5852 	2.10807e-223
0.5859 	1.62864e-223
0.5866 	1.38894e-223
0.5873 	9.94509e-224
0.588 	5.1664e-224
0.5887 	3.87711e-225
0.5894 	6.11984e-226
0.5901 	7.26234e-226
0.5908 	5.66291e-226
0.5915 	4.63475e-226
0.5922 	3.54574e-226
0.5929 	1.95185e-226
0.5936 	3.57958e-227
0.5943 	2.08463e-228
0.595 	2.6505e-228
0.5957 	2.08465e-228
0.5964 	1.64007e-228
0.5971 	1.33497e-228
0.5978 	7.71084e-229
0.5985 	2.07198e-229
0.5992 	7.09484e-231
0.5999 	9.09806e-231
0.6006 	7.66725e-231
0.6013 	5.80722e-231
0.602 	5.01099e-231
0.6027 	3.01472e-231
0.6034 	1.01845e-231
0.6041 	2.37996e-233
0.6048 	3.08005e-233
0.6055 	2.78003e-233
0.6062 	2.07997e-233
0.6069 	1.85091e-233
0.6076 	1.15323e-233
0.6083 	4.55539e-234
0.609 	7.88629e-236
0.6097 	1.03075e-235
0.6104 	9.96164e-236
0.6111 	7.54057e-236
0.6118 	6.74578e-236
0.6125 	4.33287e-236
0.6132 	1.91996e-236
0.6139 	2.58625e-238
0.6146 	3.41653e-238
0.6153 	3.53516e-238
0.616 	2.70492e-238
0.6167 	2.40845e-238
0.6174 	1.60402e-238
0.6181 	7.76556e-239
0.6188 	8.39193e-241
0.6195 	1.1215e-240
0.6202 	1.2425e-240
0.6209 	9.60202e-241
0.6216 	8.19065e-241
0.6223 	5.85578e-241
0.623 	3.04216e-241
0.6237 	2.28549e-242
0.6244 	3.63791e-243
0.6251 	4.31633e-243
0.6258 	3.3666e-243
0.6265 	2.75608e-243
0.6272 	2.10526e-243
0.6279 	1.15862e-243
0.6286 	2.11979e-244
0.6293 	1.15919e-245
0.63 	1.47352e-245
0.6307 	1.15921e-245
0.6314 	9.12258e-246
0.6321 	7.4146e-246
0.6328 	4.28151e-246
0.6335 	1.14842e-246
0.6342 	3.59606e-248
0.6349 	4.61032e-248
0.6356 	3.88589e-248
0.6363 	2.94414e-248
0.637 	2.53692e-248
0.6377 	1.52583e-248
0.6384 	5.14742e-249
0.6391 	1.07742e-250
0.6398 	1.39402e-250
0.6405 	1.25834e-250
0.6412 	9.41757e-251
0.6419 	8.36973e-251
0.6426 	5.21326e-251
0.6433 	2.05679e-251
0.644 	3.10167e-253
0.6447 	4.05291e-253
0.6454 	3.91704e-253
0.6461 	2.96584e-253
0.6468 	2.6502e-253
0.6475 	1.70171e-253
0.6482 	7.5321e-254
0.6489 	8.54537e-256
0.6496 	1.12859e-255
0.6503 	1.16774e-255
0.651 	8.93702e-256
0.6517 	7.9584e-256
0.6524 	5.29258e-256
0.6531 	2.55964e-256
0.6538 	2.24398e-258
0.6545 	2.99808e-258
0.6552 	3.32128e-258
0.6559 	2.5672e-258
0.6566 	2.19018e-258
0.6573 	1.56371e-258
0.658 	8.11592e-259
0.6587 	5.94709e-260
0.6594 	7.57995e-261
0.6601 	8.99243e-261
0.6608 	7.01503e-261
0.6615 	5.74387e-261
0.6622 	4.38208e-261
0.6629 	2.40958e-261
0.6636 	4.3708e-262
0.6643 	1.82825e-263
0.665 	2.32363e-263
0.6657 	1.82826e-263
0.6664 	1.43905e-263
0.6671 	1.16833e-263
0.6678 	6.7415e-264
0.6685 	1.79967e-264
0.6692 	4.23922e-266
0.6699 	5.43403e-266
0.6706 	4.58062e-266
0.6713 	3.47118e-266
0.672 	2.98816e-266
0.6727 	1.79615e-266
0.6734 	6.04147e-267
0.6741 	9.5374e-269
0.6748 	1.23381e-268
0.6755 	1.11378e-268
0.6762 	8.3372e-269
0.6769 	7.40344e-269
0.6776 	4.60918e-269
0.6783 	1.81493e-269
0.679 	2.08899e-271
0.6797 	2.72925e-271
0.6804 	2.63779e-271
0.6811 	1.99754e-271
0.6818 	1.78374e-271
0.6825 	1.1449e-271
0.6832 	5.06062e-272
0.6839 	4.41848e-274
0.6846 	5.83463e-274
0.6853 	6.03695e-274
0.686 	4.62081e-274
0.6867 	4.11506e-274
0.6874 	2.73406e-274
0.6881 	1.32089e-274
0.6888 	8.87281e-277
0.6895 	1.18529e-276
0.6902 	1.31301e-276
0.6909 	1.015e-276
0.6916 	8.65997e-277
0.6923 	6.17798e-277
0.693 	3.20375e-277
0.6937 	2.29511e-278
0.6944 	2.24979e-279
0.6951 	2.66887e-279
0.6958 	2.08216e-279
0.6965 	1.70499e-279
0.6972 	1.30062e-279
0.6979 	7.16049e-280
0.6986 	1.31475e-280
0.6993 	7.88331e-282
0.7 	1.00187e-281
