0 	1
0.0007 	1
0.0014 	1
0.0021 	1
0.0028 	1
0.0035 	1
0.0042 	1
0.0049 	1
0.0056 	1
0.0063 	1
0.007 	1
0.0077 	1
0.0084 	1
0.0091 	1
0.0098 	1
0.0105 	1
0.0112 	1
0.0119 	1
0.0126 	1
0.0133 	1
0.014 	1
0.0147 	1
0.0154 	1
0.0161 	1
0.0168 	1
0.0175 	1
0.0182 	1
0.0189 	1
0.0196 	1
0.0203 	1
0.021 	1
0.0217 	1
0.0224 	1
0.0231 	1
0.0238 	1
0.0245 	1
0.0252 	1
0.0259 	1
0.0266 	1
0.0273 	1
0.028 	1
0.0287 	1
0.0294 	1
0.0301 	1
0.0308 	1
0.0315 	1
0.0322 	1
0.0329 	1
0.0336 	1
0.0343 	1
0.035 	1
0.0357 	1
0.0364 	1
0.0371 	1
0.0378 	1
0.0385 	1
0.0392 	1
0.0399 	1
0.0406 	1
0.0413 	1
0.042 	1
0.0427 	1
0.0434 	1
0.0441 	1
0.0448 	1
0.0455 	1
0.0462 	1
0.0469 	1
0.0476 	1
0.0483 	1
0.049 	1
0.0497 	1
0.0504 	1
0.0511 	1
0.0518 	1
0.0525 	1
0.0532 	1
0.0539 	1
0.0546 	1
0.0553 	1
0.056 	1
0.0567 	1
0.0574 	1
0.0581 	1
0.0588 	1
0.0595 	1
0.0602 	1
0.0609 	1
0.0616 	1
0.0623 	1
0.063 	1
0.0637 	1
0.0644 	1
0.0651 	1
0.0658 	1
0.0665 	1
0.0672 	1
0.0679 	1
0.0686 	1
0.0693 	1
0.07 	1
0.0707 	1
0.0714 	1
0.0721 	1
0.0728 	1
0.0735 	1
0.0742 	1
0.0749 	1
0.0756 	1
0.0763 	1
0.077 	1
0.0777 	1
0.0784 	1
0.0791 	1
0.0798 	1
0.0805 	1
0.0812 	1
0.0819 	1
0.0826 	1
0.0833 	1
0.084 	1
0.0847 	1
0.0854 	1
0.0861 	1
0.0868 	1
0.0875 	1
0.0882 	1
0.0889 	1
0.0896 	1
0.0903 	1
0.091 	1
0.0917 	1
0.0924 	1
0.0931 	1
0.0938 	1
0.0945 	1
0.0952 	1
0.0959 	1
0.0966 	1
0.0973 	1
0.098 	1
0.0987 	1
0.0994 	1
0.1001 	1
0.1008 	1
0.1015 	1
0.1022 	1
0.1029 	1
0.1036 	1
0.1043 	1
0.105 	1
0.1057 	1
0.1064 	1
0.1071 	1
0.1078 	1
0.1085 	1
0.1092 	1
0.1099 	1
0.1106 	1
0.1113 	1
0.112 	1
0.1127 	1
0.1134 	1
0.1141 	1
0.1148 	1
0.1155 	1
0.1162 	1
0.1169 	1
0.1176 	1
0.1183 	1
0.119 	1
0.1197 	1
0.1204 	1
0.1211 	1
0.1218 	1
0.1225 	1
0.1232 	1
0.1239 	1
0.1246 	1
0.1253 	1
0.126 	1
0.1267 	1
0.1274 	1
0.1281 	1
0.1288 	1
0.1295 	1
0.1302 	1
0.1309 	1
0.1316 	1
0.1323 	1
0.133 	1
0.1337 	1
0.1344 	1
0.1351 	1
0.1358 	1
0.1365 	1
0.1372 	1
0.1379 	1
0.1386 	1
0.1393 	1
0.14 	1
0.1407 	1
0.1414 	1
0.1421 	1
0.1428 	1
0.1435 	1
0.1442 	1
0.1449 	1
0.1456 	1
0.1463 	1
0.147 	1
0.1477 	1
0.1484 	1
0.1491 	1
0.1498 	1
0.1505 	1
0.1512 	1
0.1519 	1
0.1526 	1
0.1533 	1
0.154 	1
0.1547 	1
0.1554 	1
0.1561 	1
0.1568 	1
0.1575 	1
0.1582 	1
0.1589 	1
0.1596 	1
0.1603 	1
0.161 	1
0.1617 	1
0.1624 	1
0.1631 	1
0.1638 	1
0.1645 	1
0.1652 	1
0.1659 	1
0.1666 	1
0.1673 	1
0.168 	1
0.1687 	1
0.1694 	1
0.1701 	1
0.1708 	1
0.1715 	1
0.1722 	1
0.1729 	1
0.1736 	1
0.1743 	1
0.175 	1
0.1757 	1
0.1764 	1
0.1771 	1
0.1778 	1
0.1785 	1
0.1792 	1
0.1799 	1
0.1806 	1
0.1813 	1
0.182 	1
0.1827 	1
0.1834 	1
0.1841 	1
0.1848 	1
0.1855 	1
0.1862 	1
0.1869 	1
0.1876 	1
0.1883 	1
0.189 	1
0.1897 	1
0.1904 	1
0.1911 	1
0.1918 	1
0.1925 	1
0.1932 	1
0.1939 	1
0.1946 	1
0.1953 	1
0.196 	1
0.1967 	1
0.1974 	1
0.1981 	1
0.1988 	1
0.1995 	1
0.2002 	1
0.2009 	1
0.2016 	1
0.2023 	1
0.203 	1
0.2037 	1
0.2044 	1
0.2051 	1
0.2058 	1
0.2065 	1
0.2072 	1
0.2079 	1
0.2086 	1
0.2093 	1
0.21 	1
0.2107 	1
0.2114 	1
0.2121 	1
0.2128 	1
0.2135 	1
0.2142 	1
0.2149 	1
0.2156 	1
0.2163 	1
0.217 	1
0.2177 	1
0.2184 	1
0.2191 	1
0.2198 	1
0.2205 	1
0.2212 	1
0.2219 	1
0.2226 	1
0.2233 	1
0.224 	1
0.2247 	1
0.2254 	1
0.2261 	1
0.2268 	1
0.2275 	0.999999
0.2282 	0.999999
0.2289 	0.999999
0.2296 	0.999998
0.2303 	0.999997
0.231 	0.999997
0.2317 	0.999898
0.2324 	0.99971
0.2331 	0.999522
0.2338 	0.999323
0.2345 	0.998986
0.2352 	0.998651
0.2359 	0.998321
0.2366 	0.994524
0.2373 	0.986475
0.238 	0.978373
0.2387 	0.97027
0.2394 	0.955729
0.2401 	0.940701
0.2408 	0.925723
0.2415 	0.899088
0.2422 	0.850162
0.2429 	0.800898
0.2436 	0.751634
0.2443 	0.676724
0.245 	0.59482
0.2457 	0.512924
0.2464 	0.435137
0.2471 	0.372961
0.2478 	0.311075
0.2485 	0.24919
0.2492 	0.199631
0.2499 	0.156919
0.2506 	0.114171
0.2513 	0.0728816
0.252 	0.0515099
0.2527 	0.0309612
0.2534 	0.0104125
0.2541 	0.000124995
0.2548 	9.85936e-05
0.2555 	7.2293e-05
0.2562 	4.60325e-05
0.2569 	3.14808e-05
0.2576 	1.95693e-05
0.2583 	7.65779e-06
0.259 	3.70528e-10
0.2597 	3.03667e-10
0.2604 	2.26663e-10
0.2611 	1.4205e-10
0.2618 	9.08939e-11
0.2625 	5.82653e-11
0.2632 	2.56368e-11
0.2639 	7.18785e-17
0.2646 	6.44857e-17
0.2653 	5.13324e-17
0.266 	3.04981e-17
0.2667 	1.74627e-17
0.2674 	1.14998e-17
0.2681 	5.53697e-18
0.2688 	2.37846e-23
0.2695 	2.07686e-23
0.2702 	1.6841e-23
0.2709 	1.06345e-23
0.2716 	6.04908e-24
0.2723 	4.04182e-24
0.273 	2.0906e-24
0.2737 	1.39377e-25
0.2744 	2.69559e-30
0.2751 	2.06126e-30
0.2758 	1.42969e-30
0.2765 	8.67724e-31
0.2772 	5.73677e-31
0.2779 	3.14597e-31
0.2786 	5.55176e-32
0.2793 	3.33526e-37
0.28 	2.38781e-37
0.2807 	1.75911e-37
0.2814 	1.14348e-37
0.2821 	7.42846e-38
0.2828 	4.277e-38
0.2835 	1.12553e-38
0.2842 	3.79577e-44
0.2849 	2.73134e-44
0.2856 	2.0047e-44
0.2863 	1.3356e-44
0.287 	8.46126e-45
0.2877 	5.07676e-45
0.2884 	1.69226e-45
0.2891 	3.65751e-51
0.2898 	2.66951e-51
0.2905 	1.94178e-51
0.2912 	1.31816e-51
0.2919 	8.09936e-52
0.2926 	5.03474e-52
0.2933 	1.97012e-52
0.294 	2.93776e-58
0.2947 	2.17889e-58
0.2954 	1.57479e-58
0.2961 	1.08677e-58
0.2968 	6.46598e-59
0.2975 	4.14486e-59
0.2982 	1.82374e-59
0.2989 	1.92644e-65
0.2996 	1.45953e-65
0.3003 	1.05682e-65
0.301 	7.39731e-66
0.3017 	4.24113e-66
0.3024 	2.79294e-66
0.3031 	1.34475e-66
0.3038 	9.96957e-73
0.3045 	7.71876e-73
0.3052 	5.64247e-73
0.3059 	4.0025e-73
0.3066 	2.26258e-73
0.3073 	1.49109e-73
0.308 	7.71256e-74
0.3087 	5.1418e-75
0.3094 	3.5839e-80
0.3101 	2.595e-80
0.3108 	1.86809e-80
0.3115 	1.10612e-80
0.3122 	6.95981e-81
0.3129 	3.81667e-81
0.3136 	6.73534e-82
0.3143 	1.30981e-87
0.315 	9.36622e-88
0.3157 	6.83855e-88
0.3164 	4.23422e-88
0.3171 	2.55683e-88
0.3178 	1.47211e-88
0.3185 	3.87399e-89
0.3192 	3.85172e-95
0.3199 	2.8296e-95
0.3206 	2.04925e-95
0.3213 	1.29746e-95
0.322 	7.19488e-96
0.3227 	4.31693e-96
0.3234 	1.43898e-96
0.3241 	9.04816e-103
0.3248 	6.88032e-103
0.3255 	5.01554e-103
0.3262 	3.27198e-103
0.3269 	1.71123e-103
0.3276 	1.06374e-103
0.3283 	4.16245e-104
0.329 	1.57796e-110
0.3297 	1.25176e-110
0.3304 	9.32651e-111
0.3311 	6.18845e-111
0.3318 	3.01845e-111
0.3325 	1.9349e-111
0.3332 	8.51358e-112
0.3339 	-2.12971e-116
0.3346 	-1.2176e-115
0.3353 	-1.36159e-115
0.336 	-3.58059e-116
0.3367 	5.21498e-119
0.3374 	3.42672e-119
0.3381 	1.63845e-119
0.3388 	-3.2348e-119
0.3395 	-4.82134e-118
0.3402 	-6.74898e-118
0.3409 	-2.25107e-118
0.3416 	-1.6555e-122
0.3423 	-1.67974e-123
0.343 	-1.11363e-123
0.3437 	-5.47525e-124
0.3444 	-1.15985e-120
0.3451 	-2.05165e-120
0.3458 	-8.03117e-121
0.3465 	-1.65501e-124
0.3472 	-3.63203e-126
0.3479 	-2.33986e-126
0.3486 	-1.0477e-126
0.3493 	-1.87491e-123
0.35 	-4.26019e-123
0.3507 	-1.8749e-123
0.3514 	-4.46851e-127
0.3521 	-5.36568e-129
0.3528 	-3.41409e-129
0.3535 	-1.4625e-129
0.3542 	-2.00577e-126
0.3549 	-5.12468e-126
0.3556 	-2.89688e-126
0.3563 	-6.39016e-130
0.357 	-5.29511e-132
0.3577 	-3.36652e-132
0.3584 	-1.43793e-132
0.3591 	-1.32393e-129
0.3598 	-3.97083e-129
0.3605 	-2.83644e-129
0.3612 	-1.89519e-130
0.3619 	-3.30762e-135
0.3626 	-2.11789e-135
0.3633 	-9.28152e-136
0.364 	-4.60586e-133
0.3647 	-1.74977e-132
0.3654 	-1.5656e-132
0.3661 	-2.76411e-133
0.3668 	-1.17155e-138
0.3675 	-7.63285e-139
0.3682 	-3.55023e-139
0.3689 	-7.62593e-137
0.3696 	-4.31978e-136
0.3703 	-4.82794e-136
0.371 	-1.27075e-136
0.3717 	-2.5308e-142
0.3724 	-1.67826e-142
0.3731 	-8.25728e-143
0.3738 	-3.11676e-141
0.3745 	-4.67042e-140
0.3752 	-6.53846e-140
0.3759 	-2.1797e-140
0.3766 	-1.92127e-145
0.3773 	-1.77219e-146
0.378 	-9.22103e-147
0.3787 	-7.20148e-148
0.3794 	-1.63906e-144
0.3801 	-2.8998e-144
0.3808 	-1.13477e-144
0.3815 	-3.54283e-149
0.3822 	-6.25265e-151
0.3829 	-3.43037e-151
0.3836 	-6.08082e-152
0.3843 	-4.96134e-150
0.385 	-1.12753e-149
0.3857 	-4.96133e-150
0.3864 	-1.8915e-154
0.3871 	-1.95118e-156
0.3878 	-1.12341e-156
0.3885 	-2.95634e-157
0.3892 	8.41629e-190
0.3899 	1.23447e-189
0.3906 	9.04213e-190
0.3913 	4.22293e-190
0.392 	1.81251e-191
0.3927 	1.08752e-191
0.3934 	3.62533e-192
0.3941 	5.16123e-196
0.3948 	7.83614e-196
0.3955 	6.44949e-196
0.3962 	3.43822e-196
0.3969 	1.11046e-197
0.3976 	6.9029e-198
0.3983 	2.70117e-198
0.399 	7.37534e-203
0.3997 	1.16477e-202
0.4004 	1.07758e-202
0.4011 	6.04571e-203
0.4018 	1.58987e-204
0.4025 	1.01915e-204
0.4032 	4.48425e-205
0.4039 	2.89703e-269
0.4046 	3.78329e-269
0.4053 	3.90978e-269
0.406 	3.02326e-269
0.4067 	2.59655e-269
0.4074 	1.71029e-269
0.4081 	8.24042e-270
0.4088 	1.11868e-272
0.4095 	1.47642e-272
0.4102 	1.62972e-272
0.4109 	1.27189e-272
0.4116 	1.093e-272
0.4123 	7.41413e-273
0.413 	3.83674e-273
0.4137 	2.59346e-274
0.4144 	4.97465e-276
0.4151 	5.86621e-276
0.4158 	4.61775e-276
0.4165 	3.81523e-276
0.4172 	2.76509e-276
0.4179 	1.51687e-276
0.4186 	2.68642e-277
0.4193 	1.46467e-279
0.42 	1.84567e-279
0.4207 	1.46456e-279
0.4214 	1.16514e-279
0.4221 	8.98487e-280
0.4228 	5.17457e-280
0.4235 	1.36426e-280
0.4242 	4.16123e-283
0.4249 	5.28421e-283
0.4256 	4.48124e-283
0.4263 	3.43757e-283
0.427 	2.81025e-283
0.4277 	1.68669e-283
0.4284 	5.63142e-284
0.4291 	1.58751e-286
0.4298 	2.03211e-286
0.4305 	1.84083e-286
0.4312 	1.39519e-286
0.4319 	1.17771e-286
0.4326 	7.32442e-287
0.4333 	2.87171e-287
0.434 	1.0322e-289
0.4347 	1.33279e-289
0.4354 	1.28926e-289
0.4361 	9.87657e-290
0.4368 	8.40028e-290
0.4375 	5.38759e-290
0.4382 	2.37489e-290
0.4389 	8.31043e-293
0.4396 	1.08339e-292
0.4403 	1.11906e-292
0.441 	8.65808e-293
0.4417 	7.41464e-293
0.4424 	4.88497e-293
0.4431 	2.3553e-293
0.4438 	6.47207e-296
0.4445 	8.52577e-296
0.4452 	9.40388e-296
0.4459 	7.343e-296
0.4466 	6.31226e-296
0.4473 	4.2693e-296
0.448 	2.21057e-296
0.4487 	1.51841e-297
0.4494 	6.23089e-299
0.4501 	7.34016e-299
0.4508 	5.78084e-299
0.4515 	4.77826e-299
0.4522 	3.45274e-299
0.4529 	1.89489e-299
0.4536 	3.37033e-300
0.4543 	4.02401e-302
0.455 	5.06444e-302
0.4557 	4.02055e-302
0.4564 	3.20029e-302
0.4571 	2.46039e-302
0.4578 	1.41735e-302
0.4585 	3.74306e-303
0.4592 	2.16416e-305
0.4599 	2.745e-305
0.4606 	2.32849e-305
0.4613 	1.78736e-305
0.462 	1.45666e-305
0.4627 	8.74314e-306
0.4634 	2.9197e-306
0.4641 	9.27202e-309
0.4648 	1.18588e-308
0.4655 	1.07442e-308
0.4662 	8.14891e-309
0.4669 	6.85768e-309
0.4676 	4.26393e-309
0.4683 	1.67018e-309
0.469 	3.08276e-312
0.4697 	3.9781e-312
0.4704 	3.8485e-312
0.4711 	2.95018e-312
0.4718 	2.50196e-312
0.4725 	1.60407e-312
0.4732 	7.06185e-313
0.4739 	7.4949e-316
0.4746 	9.76685e-316
0.4753 	1.00888e-315
0.476 	7.81088e-316
0.4767 	6.6711e-316
0.4774 	4.39317e-316
0.4781 	2.11523e-316
0.4788 	0
0.4795 	0
0.4802 	0
0.4809 	0
0.4816 	0
0.4823 	0
0.483 	0
0.4837 	0
0.4844 	0
0.4851 	0
0.4858 	0
0.4865 	0
0.4872 	0
0.4879 	0
0.4886 	0
0.4893 	0
0.49 	0
0.4907 	0
0.4914 	0
0.4921 	0
0.4928 	0
0.4935 	0
0.4942 	0
0.4949 	0
0.4956 	0
0.4963 	0
0.497 	0
0.4977 	0
0.4984 	0
0.4991 	0
0.4998 	0
0.5005 	0
0.5012 	0
0.5019 	0
0.5026 	0
0.5033 	0
0.504 	0
0.5047 	0
0.5054 	0
0.5061 	0
0.5068 	0
0.5075 	0
0.5082 	0
0.5089 	0
0.5096 	0
0.5103 	0
0.511 	0
0.5117 	0
0.5124 	0
0.5131 	0
0.5138 	0
0.5145 	0
0.5152 	0
0.5159 	0
0.5166 	0
0.5173 	0
0.518 	0
0.5187 	0
0.5194 	0
0.5201 	0
0.5208 	0
0.5215 	0
0.5222 	0
0.5229 	0
0.5236 	0
0.5243 	0
0.525 	0
0.5257 	0
0.5264 	0
0.5271 	0
0.5278 	0
0.5285 	0
0.5292 	0
0.5299 	0
0.5306 	0
0.5313 	0
0.532 	0
0.5327 	0
0.5334 	0
0.5341 	0
0.5348 	0
0.5355 	0
0.5362 	0
0.5369 	0
0.5376 	0
0.5383 	0
0.539 	0
0.5397 	0
0.5404 	0
0.5411 	0
0.5418 	0
0.5425 	0
0.5432 	0
0.5439 	0
0.5446 	0
0.5453 	0
0.546 	0
0.5467 	0
0.5474 	0
0.5481 	0
0.5488 	0
0.5495 	0
0.5502 	0
0.5509 	0
0.5516 	0
0.5523 	0
0.553 	0
0.5537 	0
0.5544 	0
0.5551 	0
0.5558 	0
0.5565 	0
0.5572 	0
0.5579 	0
0.5586 	0
0.5593 	0
0.56 	0
0.5607 	0
0.5614 	0
0.5621 	0
0.5628 	0
0.5635 	0
0.5642 	0
0.5649 	0
0.5656 	0
0.5663 	0
0.567 	0
0.5677 	0
0.5684 	0
0.5691 	0
0.5698 	0
0.5705 	0
0.5712 	0
0.5719 	0
0.5726 	0
0.5733 	0
0.574 	0
0.5747 	0
0.5754 	0
0.5761 	0
0.5768 	0
0.5775 	0
0.5782 	0
0.5789 	0
0.5796 	0
0.5803 	0
0.581 	0
0.5817 	0
0.5824 	0
0.5831 	0
0.5838 	0
0.5845 	0
0.5852 	0
0.5859 	0
0.5866 	0
0.5873 	0
0.588 	0
0.5887 	0
0.5894 	0
0.5901 	0
0.5908 	0
0.5915 	0
0.5922 	0
0.5929 	0
0.5936 	0
0.5943 	0
0.595 	0
0.5957 	0
0.5964 	0
0.5971 	0
0.5978 	0
0.5985 	0
0.5992 	0
0.5999 	0
0.6006 	0
0.6013 	0
0.602 	0
0.6027 	0
0.6034 	0
0.6041 	0
0.6048 	0
0.6055 	0
0.6062 	0
0.6069 	0
0.6076 	0
0.6083 	0
0.609 	0
0.6097 	0
0.6104 	0
0.6111 	0
0.6118 	0
0.6125 	0
0.6132 	0
0.6139 	0
0.6146 	0
0.6153 	0
0.616 	0
0.6167 	0
0.6174 	0
0.6181 	0
0.6188 	0
0.6195 	0
0.6202 	0
0.6209 	0
0.6216 	0
0.6223 	0
0.623 	0
0.6237 	0
0.6244 	0
0.6251 	0
0.6258 	0
0.6265 	0
0.6272 	0
0.6279 	0
0.6286 	0
0.6293 	0
0.63 	0
0.6307 	0
0.6314 	0
0.6321 	0
0.6328 	0
0.6335 	0
0.6342 	0
0.6349 	0
0.6356 	0
0.6363 	0
0.637 	0
0.6377 	0
0.6384 	0
0.6391 	0
0.6398 	0
0.6405 	0
0.6412 	0
0.6419 	0
0.6426 	0
0.6433 	0
0.644 	0
0.6447 	0
0.6454 	0
0.6461 	0
0.6468 	0
0.6475 	0
0.6482 	0
0.6489 	0
0.6496 	0
0.6503 	0
0.651 	0
0.6517 	0
0.6524 	0
0.6531 	0
0.6538 	0
0.6545 	0
0.6552 	0
0.6559 	0
0.6566 	0
0.6573 	0
0.658 	0
0.6587 	0
0.6594 	0
0.6601 	0
0.6608 	0
0.6615 	0
0.6622 	0
0.6629 	0
0.6636 	0
0.6643 	0
0.665 	0
0.6657 	0
0.6664 	0
0.6671 	0
0.6678 	0
0.6685 	0
0.6692 	0
0.6699 	0
0.6706 	0
0.6713 	0
0.672 	0
0.6727 	0
0.6734 	0
0.6741 	0
0.6748 	0
0.6755 	0
0.6762 	0
0.6769 	0
0.6776 	0
0.6783 	0
0.679 	0
0.6797 	0
0.6804 	0
0.6811 	0
0.6818 	0
0.6825 	0
0.6832 	0
0.6839 	0
0.6846 	0
0.6853 	0
0.686 	0
0.6867 	0
0.6874 	0
0.6881 	0
0.6888 	0
0.6895 	0
0.6902 	0
0.6909 	0
0.6916 	0
0.6923 	0
0.693 	0
0.6937 	0
0.6944 	0
0.6951 	0
0.6958 	0
0.6965 	0
0.6972 	0
0.6979 	0
0.6986 	0
0.6993 	0
0.7 	0
