0 	1
0.0007 	1
0.0014 	1
0.0021 	1
0.0028 	1
0.0035 	1
0.0042 	1
0.0049 	1
0.0056 	1
0.0063 	1
0.007 	1
0.0077 	1
0.0084 	1
0.0091 	1
0.0098 	1
0.0105 	1
0.0112 	1
0.0119 	1
0.0126 	1
0.0133 	1
0.014 	1
0.0147 	1
0.0154 	1
0.0161 	1
0.0168 	1
0.0175 	1
0.0182 	1
0.0189 	1
0.0196 	1
0.0203 	1
0.021 	1
0.0217 	1
0.0224 	1
0.0231 	1
0.0238 	1
0.0245 	1
0.0252 	1
0.0259 	1
0.0266 	1
0.0273 	1
0.028 	1
0.0287 	1
0.0294 	1
0.0301 	1
0.0308 	1
0.0315 	1
0.0322 	1
0.0329 	1
0.0336 	1
0.0343 	1
0.035 	1
0.0357 	1
0.0364 	1
0.0371 	1
0.0378 	1
0.0385 	1
0.0392 	1
0.0399 	1
0.0406 	1
0.0413 	1
0.042 	1
0.0427 	1
0.0434 	1
0.0441 	1
0.0448 	1
0.0455 	1
0.0462 	1
0.0469 	1
0.0476 	1
0.0483 	1
0.049 	1
0.0497 	1
0.0504 	1
0.0511 	1
0.0518 	1
0.0525 	1
0.0532 	1
0.0539 	1
0.0546 	1
0.0553 	1
0.056 	1
0.0567 	1
0.0574 	1
0.0581 	1
0.0588 	1
0.0595 	1
0.0602 	1
0.0609 	1
0.0616 	1
0.0623 	1
0.063 	1
0.0637 	1
0.0644 	1
0.0651 	1
0.0658 	1
0.0665 	1
0.0672 	1
0.0679 	1
0.0686 	1
0.0693 	1
0.07 	1
0.0707 	1
0.0714 	1
0.0721 	1
0.0728 	1
0.0735 	1
0.0742 	1
0.0749 	1
0.0756 	1
0.0763 	1
0.077 	1
0.0777 	1
0.0784 	1
0.0791 	1
0.0798 	1
0.0805 	1
0.0812 	1
0.0819 	1
0.0826 	1
0.0833 	1
0.084 	1
0.0847 	1
0.0854 	1
0.0861 	1
0.0868 	1
0.0875 	1
0.0882 	1
0.0889 	1
0.0896 	1
0.0903 	1
0.091 	1
0.0917 	1
0.0924 	1
0.0931 	1
0.0938 	1
0.0945 	1
0.0952 	1
0.0959 	1
0.0966 	1
0.0973 	1
0.098 	1
0.0987 	1
0.0994 	1
0.1001 	1
0.1008 	1
0.1015 	1
0.1022 	1
0.1029 	1
0.1036 	1
0.1043 	1
0.105 	1
0.1057 	1
0.1064 	1
0.1071 	1
0.1078 	1
0.1085 	1
0.1092 	1
0.1099 	1
0.1106 	1
0.1113 	1
0.112 	1
0.1127 	1
0.1134 	1
0.1141 	1
0.1148 	1
0.1155 	1
0.1162 	1
0.1169 	1
0.1176 	1
0.1183 	1
0.119 	1
0.1197 	1
0.1204 	1
0.1211 	1
0.1218 	1
0.1225 	1
0.1232 	1
0.1239 	1
0.1246 	1
0.1253 	1
0.126 	1
0.1267 	1
0.1274 	1
0.1281 	1
0.1288 	1
0.1295 	1
0.1302 	1
0.1309 	1
0.1316 	1
0.1323 	1
0.133 	1
0.1337 	1
0.1344 	1
0.1351 	1
0.1358 	1
0.1365 	1
0.1372 	1
0.1379 	1
0.1386 	1
0.1393 	1
0.14 	1
0.1407 	1
0.1414 	1
0.1421 	1
0.1428 	1
0.1435 	1
0.1442 	1
0.1449 	1
0.1456 	1
0.1463 	1
0.147 	1
0.1477 	1
0.1484 	1
0.1491 	1
0.1498 	1
0.1505 	1
0.1512 	1
0.1519 	1
0.1526 	1
0.1533 	1
0.154 	1
0.1547 	1
0.1554 	1
0.1561 	1
0.1568 	1
0.1575 	1
0.1582 	1
0.1589 	1
0.1596 	1
0.1603 	1
0.161 	1
0.1617 	1
0.1624 	1
0.1631 	1
0.1638 	1
0.1645 	1
0.1652 	1
0.1659 	1
0.1666 	1
0.1673 	1
0.168 	1
0.1687 	1
0.1694 	1
0.1701 	1
0.1708 	1
0.1715 	1
0.1722 	1
0.1729 	1
0.1736 	1
0.1743 	1
0.175 	1
0.1757 	1
0.1764 	1
0.1771 	1
0.1778 	1
0.1785 	1
0.1792 	1
0.1799 	1
0.1806 	1
0.1813 	1
0.182 	1
0.1827 	1
0.1834 	1
0.1841 	1
0.1848 	1
0.1855 	1
0.1862 	1
0.1869 	1
0.1876 	1
0.1883 	1
0.189 	1
0.1897 	1
0.1904 	1
0.1911 	1
0.1918 	1
0.1925 	1
0.1932 	1
0.1939 	1
0.1946 	1
0.1953 	1
0.196 	1
0.1967 	1
0.1974 	1
0.1981 	1
0.1988 	1
0.1995 	1
0.2002 	1
0.2009 	1
0.2016 	1
0.2023 	1
0.203 	1
0.2037 	1
0.2044 	1
0.2051 	1
0.2058 	1
0.2065 	1
0.2072 	1
0.2079 	1
0.2086 	1
0.2093 	1
0.21 	1
0.2107 	1
0.2114 	1
0.2121 	1
0.2128 	1
0.2135 	1
0.2142 	1
0.2149 	1
0.2156 	1
0.2163 	1
0.217 	1
0.2177 	1
0.2184 	1
0.2191 	1
0.2198 	1
0.2205 	1
0.2212 	1
0.2219 	1
0.2226 	1
0.2233 	1
0.224 	1
0.2247 	1
0.2254 	1
0.2261 	1
0.2268 	1
0.2275 	1
0.2282 	1
0.2289 	1
0.2296 	1
0.2303 	1
0.231 	1
0.2317 	1
0.2324 	1
0.2331 	1
0.2338 	1
0.2345 	1
0.2352 	1
0.2359 	1
0.2366 	1
0.2373 	1
0.238 	0.999999
0.2387 	0.999999
0.2394 	0.999999
0.2401 	0.999823
0.2408 	0.998586
0.2415 	0.997349
0.2422 	0.996109
0.2429 	0.99487
0.2436 	0.99363
0.2443 	0.99239
0.245 	0.99115
0.2457 	0.921948
0.2464 	0.852736
0.2471 	0.783526
0.2478 	0.714317
0.2485 	0.645107
0.2492 	0.575897
0.2499 	0.506688
0.2506 	0.437838
0.2513 	0.369074
0.252 	0.300314
0.2527 	0.231554
0.2534 	0.162794
0.2541 	0.0940333
0.2548 	0.025273
0.2555 	0.00507648
0.2562 	0.00428979
0.2569 	0.0034998
0.2576 	0.00270956
0.2583 	0.00191932
0.259 	0.00112908
0.2597 	0.000338836
0.2604 	2.70503e-07
0.2611 	2.29266e-07
0.2618 	1.88099e-07
0.2625 	1.46951e-07
0.2632 	1.05803e-07
0.2639 	6.46548e-08
0.2646 	2.35067e-08
0.2653 	5.03403e-13
0.266 	4.27063e-13
0.2667 	3.51821e-13
0.2674 	2.7719e-13
0.2681 	2.02558e-13
0.2688 	1.27927e-13
0.2695 	5.3296e-14
0.2702 	6.86236e-19
0.2709 	5.82083e-19
0.2716 	4.80538e-19
0.2723 	3.816e-19
0.273 	2.82663e-19
0.2737 	1.83725e-19
0.2744 	8.47874e-20
0.2751 	6.80752e-25
0.2758 	5.76812e-25
0.2765 	4.75993e-25
0.2772 	3.80791e-25
0.2779 	2.85589e-25
0.2786 	1.90388e-25
0.2793 	9.51859e-26
0.28 	5.1592e-31
0.2807 	4.36503e-31
0.2814 	3.59141e-31
0.2821 	2.89306e-31
0.2828 	2.19471e-31
0.2835 	1.49635e-31
0.2842 	7.98e-32
0.2849 	9.9647e-33
0.2856 	2.51805e-37
0.2863 	2.059e-37
0.287 	1.66945e-37
0.2877 	1.2799e-37
0.2884 	8.90342e-38
0.2891 	5.00788e-38
0.2898 	1.11235e-38
0.2905 	1.08844e-43
0.2912 	8.83734e-44
0.2919 	7.18461e-44
0.2926 	5.56222e-44
0.2933 	3.93982e-44
0.294 	2.31743e-44
0.2947 	6.95034e-45
0.2954 	3.41287e-50
0.2961 	2.75291e-50
0.2968 	2.22845e-50
0.2975 	1.74096e-50
0.2982 	1.25347e-50
0.2989 	7.65976e-51
0.2996 	2.78483e-51
0.3003 	7.97211e-57
0.301 	6.37195e-57
0.3017 	5.10438e-57
0.3024 	4.02159e-57
0.3031 	2.93881e-57
0.3038 	1.85602e-57
0.3045 	7.73232e-58
0.3052 	1.41343e-63
0.3059 	1.11754e-63
0.3066 	8.79089e-64
0.3073 	6.98094e-64
0.308 	5.17099e-64
0.3087 	3.36103e-64
0.3094 	1.55108e-64
0.3101 	1.82925e-70
0.3108 	1.42318e-70
0.3115 	1.08466e-70
0.3122 	8.67717e-71
0.3129 	6.50778e-71
0.3136 	4.33839e-71
0.3143 	2.16901e-71
0.315 	1.97099e-77
0.3157 	1.51893e-77
0.3164 	1.11716e-77
0.3171 	8.99927e-78
0.3178 	6.82694e-78
0.3185 	4.65461e-78
0.3192 	2.48228e-78
0.3199 	3.09953e-79
0.3206 	1.24513e-84
0.3213 	8.85475e-85
0.322 	7.17947e-85
0.3227 	5.50419e-85
0.3234 	3.82891e-85
0.3241 	2.15364e-85
0.3248 	4.78358e-86
0.3255 	1.04226e-91
0.3262 	7.70172e-92
0.3269 	6.20605e-92
0.3276 	4.80463e-92
0.3283 	3.40321e-92
0.329 	2.00178e-92
0.3297 	6.00364e-93
0.3304 	8.55182e-99
0.3311 	6.89414e-99
0.3318 	5.57985e-99
0.3325 	4.35921e-99
0.3332 	3.13857e-99
0.3339 	1.91793e-99
0.3346 	6.97294e-100
0.3353 	7.77688e-106
0.336 	6.75758e-106
0.3367 	5.62629e-106
0.3374 	4.43279e-106
0.3381 	3.23929e-106
0.3388 	2.04579e-106
0.3395 	8.52291e-107
0.3402 	7.05623e-113
0.3409 	6.35481e-113
0.3416 	5.4437e-113
0.3423 	4.32289e-113
0.343 	3.20209e-113
0.3437 	2.08129e-113
0.3444 	9.60491e-114
0.3451 	5.48837e-120
0.3458 	5.01772e-120
0.3465 	4.40081e-120
0.3472 	3.52062e-120
0.3479 	2.64042e-120
0.3486 	1.76023e-120
0.3493 	8.80039e-121
0.35 	4.08902e-127
0.3507 	3.75685e-127
0.3514 	3.35607e-127
0.3521 	2.70348e-127
0.3528 	2.05089e-127
0.3535 	1.3983e-127
0.3542 	7.45705e-128
0.3549 	9.31132e-129
0.3556 	2.24305e-134
0.3563 	2.03602e-134
0.357 	1.65081e-134
0.3577 	1.26561e-134
0.3584 	8.80403e-135
0.3591 	4.95197e-135
0.3598 	1.09991e-135
0.3605 	-5.75746e-142
0.3612 	6.95598e-142
0.3619 	6.41523e-142
0.3626 	4.85492e-142
0.3633 	3.29461e-142
0.364 	1.7343e-142
0.3647 	1.73989e-143
0.3654 	-4.67442e-143
0.3661 	-4.20178e-143
0.3668 	-3.49944e-143
0.3675 	-2.73445e-143
0.3682 	-1.96946e-143
0.3689 	-1.20448e-143
0.3696 	-4.39491e-144
0.3703 	-2.3903e-146
0.371 	-2.15986e-146
0.3717 	-1.82836e-146
0.3724 	-1.44071e-146
0.3731 	-1.05307e-146
0.3738 	-6.65427e-147
0.3745 	-2.77783e-147
0.3752 	-9.3685e-150
0.3759 	-8.47464e-150
0.3766 	-7.27876e-150
0.3773 	-5.78084e-150
0.378 	-4.28291e-150
0.3787 	-2.78499e-150
0.3794 	-1.28707e-150
0.3801 	-3.35057e-153
0.3808 	-3.03615e-153
0.3815 	-2.64514e-153
0.3822 	-2.11631e-153
0.3829 	-1.58747e-153
0.3836 	-1.05863e-153
0.3843 	-5.29795e-154
0.385 	-1.04932e-156
0.3857 	-9.52312e-157
0.3864 	-8.41069e-157
0.3871 	-6.77578e-157
0.3878 	-5.14088e-157
0.3885 	-3.50598e-157
0.3892 	-1.87107e-157
0.3899 	-2.36172e-158
0.3906 	-2.66826e-160
0.3913 	-2.38776e-160
0.392 	-1.93614e-160
0.3927 	-1.48452e-160
0.3934 	-1.0329e-160
0.3941 	-5.81276e-161
0.3948 	-1.29655e-161
0.3955 	-6.52575e-164
0.3962 	-5.88252e-164
0.3969 	-4.82513e-164
0.3976 	-3.73587e-164
0.3983 	-2.64662e-164
0.399 	-1.55736e-164
0.3997 	-4.68105e-165
0.4004 	-1.39182e-167
0.4011 	-1.2567e-167
0.4018 	-1.04771e-167
0.4025 	-8.18578e-168
0.4032 	-5.89443e-168
0.4039 	-3.60307e-168
0.4046 	-1.31172e-168
0.4053 	-2.66436e-171
0.406 	-2.4094e-171
0.4067 	-2.04019e-171
0.4074 	-1.6075e-171
0.4081 	-1.17482e-171
0.4088 	-7.42132e-172
0.4095 	-3.09447e-172
0.4102 	-4.48861e-175
0.4109 	-4.06505e-175
0.4116 	-3.49369e-175
0.4123 	-2.77451e-175
0.413 	-2.05534e-175
0.4137 	-1.33616e-175
0.4144 	-6.16984e-176
0.4151 	-6.61919e-179
0.4158 	-6.00294e-179
0.4165 	-5.23304e-179
0.4172 	-4.18657e-179
0.4179 	-3.1401e-179
0.4186 	-2.09363e-179
0.4193 	-1.04716e-179
0.42 	-8.64301e-183
0.4207 	-7.84811e-183
0.4214 	-6.93471e-183
0.4221 	-5.58645e-183
0.4228 	-4.23818e-183
0.4235 	-2.88991e-183
0.4242 	-1.54165e-183
0.4249 	-1.9338e-184
0.4256 	-9.20169e-187
0.4263 	-8.23628e-187
0.427 	-6.67821e-187
0.4277 	-5.12014e-187
0.4284 	-3.56206e-187
0.4291 	-2.00399e-187
0.4298 	-4.45921e-188
0.4305 	-9.53948e-191
0.4312 	-8.59848e-191
0.4319 	-7.05263e-191
0.4326 	-5.46025e-191
0.4333 	-3.86786e-191
0.434 	-2.27548e-191
0.4347 	-6.83099e-192
0.4354 	-8.70003e-195
0.4361 	-7.85239e-195
0.4368 	-6.54578e-195
0.4375 	-5.114e-195
0.4382 	-3.68222e-195
0.4389 	-2.25044e-195
0.4396 	-8.18657e-196
0.4403 	-7.08118e-199
0.441 	-6.39897e-199
0.4417 	-5.41673e-199
0.4424 	-4.26779e-199
0.4431 	-3.11886e-199
0.4438 	-1.96993e-199
0.4445 	-8.21003e-200
0.4452 	-5.16145e-203
0.4459 	-4.66933e-203
0.4466 	-4.01046e-203
0.4473 	-3.18482e-203
0.448 	-2.35918e-203
0.4487 	-1.53353e-203
0.4494 	-7.07894e-204
0.4501 	-3.35255e-207
0.4508 	-3.03621e-207
0.4515 	-2.64401e-207
0.4522 	-2.11523e-207
0.4529 	-1.58645e-207
0.4536 	-1.05767e-207
0.4543 	-5.28886e-208
0.455 	-1.93473e-211
0.4557 	-1.75418e-211
0.4564 	-1.54784e-211
0.4571 	-1.24688e-211
0.4578 	-9.4592e-212
0.4585 	-6.44961e-212
0.4592 	-3.44002e-212
0.4599 	-4.30431e-213
0.4606 	-9.08536e-216
0.4613 	-8.11697e-216
0.462 	-6.58136e-216
0.4627 	-5.04576e-216
0.4634 	-3.51015e-216
0.4641 	-1.97455e-216
0.4648 	-4.38943e-217
0.4655 	-4.21906e-220
0.4662 	-3.79401e-220
0.4669 	-3.1113e-220
0.4676 	-2.40876e-220
0.4683 	-1.70623e-220
0.469 	-1.00369e-220
0.4697 	-3.01157e-221
0.4704 	-1.7546e-224
0.4711 	-1.57941e-224
0.4718 	-1.31573e-224
0.4725 	-1.02792e-224
0.4732 	-7.40107e-225
0.4739 	-4.52296e-225
0.4746 	-1.64486e-225
0.4753 	-6.66098e-229
0.476 	-6.00467e-229
0.4767 	-5.07785e-229
0.4774 	-4.00075e-229
0.4781 	-2.92364e-229
0.4788 	-1.84653e-229
0.4795 	-7.69422e-230
0.4802 	-2.28984e-233
0.4809 	-2.06755e-233
0.4816 	-1.7738e-233
0.4823 	-1.40861e-233
0.483 	-1.04342e-233
0.4837 	-6.78228e-234
0.4844 	-3.13036e-234
0.4851 	-7.21079e-238
0.4858 	-6.52259e-238
0.4865 	-5.67484e-238
0.4872 	-4.53987e-238
0.4879 	-3.40491e-238
0.4886 	-2.26995e-238
0.4893 	-1.13499e-238
0.49 	-2.06053e-242
0.4907 	-1.8673e-242
0.4914 	-1.64687e-242
0.4921 	-1.32665e-242
0.4928 	-1.00642e-242
0.4935 	-6.86198e-243
0.4942 	-3.65973e-243
0.4949 	-4.57483e-244
0.4956 	-4.93355e-247
0.4963 	-4.40949e-247
0.497 	-3.57526e-247
0.4977 	-2.74103e-247
0.4984 	-1.90681e-247
0.4991 	-1.07258e-247
0.4998 	-2.3835e-248
0.5005 	-1.25022e-251
0.5012 	-1.1273e-251
0.5019 	-9.24644e-252
0.5026 	-7.15853e-252
0.5033 	-5.07062e-252
0.504 	-2.98271e-252
0.5047 	-8.948e-253
0.5054 	-2.99798e-256
0.5061 	-2.7132e-256
0.5068 	-2.26319e-256
0.5075 	-1.76811e-256
0.5082 	-1.27304e-256
0.5089 	-7.77965e-257
0.5096 	-2.82891e-257
0.5103 	-6.75514e-261
0.511 	-6.13602e-261
0.5117 	-5.20512e-261
0.5124 	-4.101e-261
0.5131 	-2.99687e-261
0.5138 	-1.89275e-261
0.5145 	-7.88629e-262
0.5152 	-1.41677e-265
0.5159 	-1.29125e-265
0.5166 	-1.11383e-265
0.5173 	-8.84512e-266
0.518 	-6.55192e-266
0.5187 	-4.25872e-266
0.5194 	-1.96552e-266
0.5201 	-2.76652e-270
0.5208 	-2.52833e-270
0.5215 	-2.21686e-270
0.5222 	-1.77348e-270
0.5229 	-1.33011e-270
0.5236 	-8.8673e-271
0.5243 	-4.43356e-271
0.525 	-5.05872e-275
0.5257 	-4.63472e-275
0.5264 	-4.12955e-275
0.5271 	-3.32657e-275
0.5278 	-2.5236e-275
0.5285 	-1.72062e-275
0.5292 	-9.17648e-276
0.5299 	-1.14673e-276
0.5306 	-8.19543e-280
0.5313 	-7.41793e-280
0.532 	-6.01452e-280
0.5327 	-4.61112e-280
0.5334 	-3.20771e-280
0.5341 	-1.8043e-280
0.5348 	-4.00896e-281
0.5355 	-1.33877e-284
0.5362 	-1.2224e-284
0.5369 	-1.00364e-284
0.5376 	-7.77008e-285
0.5383 	-5.50376e-285
0.539 	-3.23745e-285
0.5397 	-9.71133e-286
0.5404 	-1.99191e-289
0.5411 	-1.82219e-289
0.5418 	-1.5239e-289
0.5425 	-1.19054e-289
0.5432 	-8.57184e-290
0.5439 	-5.23825e-290
0.5446 	-1.90467e-290
0.5453 	-2.69242e-294
0.546 	-2.4669e-294
0.5467 	-2.09999e-294
0.5474 	-1.65453e-294
0.5481 	-1.20907e-294
0.5488 	-7.63611e-295
0.5495 	-3.18151e-295
0.5502 	-3.30929e-299
0.5509 	-3.03625e-299
0.5516 	-2.62908e-299
0.5523 	-2.08779e-299
0.553 	-1.5465e-299
0.5537 	-1.00521e-299
0.5544 	-4.63917e-300
0.5551 	-3.71411e-304
0.5558 	-3.41194e-304
0.5565 	-3.00316e-304
0.5572 	-2.40252e-304
0.5579 	-1.80188e-304
0.5586 	-1.20123e-304
0.5593 	-6.0059e-305
0.56 	-3.90505e-309
0.5607 	-3.59148e-309
0.5614 	-3.21133e-309
0.5621 	-2.58689e-309
0.5628 	-1.96246e-309
0.5635 	-1.33802e-309
0.5642 	-7.13583e-310
0.5649 	-8.91468e-311
0.5656 	-3.48315e-314
0.5663 	-3.16189e-314
0.567 	-2.56368e-314
0.5677 	-1.96547e-314
0.5684 	-1.36725e-314
0.5691 	-7.6904e-315
0.5698 	-1.70827e-315
0.5705 	0
0.5712 	0
0.5719 	0
0.5726 	0
0.5733 	0
0.574 	0
0.5747 	0
0.5754 	0
0.5761 	0
0.5768 	0
0.5775 	0
0.5782 	0
0.5789 	0
0.5796 	0
0.5803 	0
0.581 	0
0.5817 	0
0.5824 	0
0.5831 	0
0.5838 	0
0.5845 	0
0.5852 	0
0.5859 	0
0.5866 	0
0.5873 	0
0.588 	0
0.5887 	0
0.5894 	0
0.5901 	0
0.5908 	0
0.5915 	0
0.5922 	0
0.5929 	0
0.5936 	0
0.5943 	0
0.595 	0
0.5957 	0
0.5964 	0
0.5971 	0
0.5978 	0
0.5985 	0
0.5992 	0
0.5999 	0
0.6006 	0
0.6013 	0
0.602 	0
0.6027 	0
0.6034 	0
0.6041 	0
0.6048 	0
0.6055 	0
0.6062 	0
0.6069 	0
0.6076 	0
0.6083 	0
0.609 	0
0.6097 	0
0.6104 	0
0.6111 	0
0.6118 	0
0.6125 	0
0.6132 	0
0.6139 	0
0.6146 	0
0.6153 	0
0.616 	0
0.6167 	0
0.6174 	0
0.6181 	0
0.6188 	0
0.6195 	0
0.6202 	0
0.6209 	0
0.6216 	0
0.6223 	0
0.623 	0
0.6237 	0
0.6244 	0
0.6251 	0
0.6258 	0
0.6265 	0
0.6272 	0
0.6279 	0
0.6286 	0
0.6293 	0
0.63 	0
0.6307 	0
0.6314 	0
0.6321 	0
0.6328 	0
0.6335 	0
0.6342 	0
0.6349 	0
0.6356 	0
0.6363 	0
0.637 	0
0.6377 	0
0.6384 	0
0.6391 	0
0.6398 	0
0.6405 	0
0.6412 	0
0.6419 	0
0.6426 	0
0.6433 	0
0.644 	0
0.6447 	0
0.6454 	0
0.6461 	0
0.6468 	0
0.6475 	0
0.6482 	0
0.6489 	0
0.6496 	0
0.6503 	0
0.651 	0
0.6517 	0
0.6524 	0
0.6531 	0
0.6538 	0
0.6545 	0
0.6552 	0
0.6559 	0
0.6566 	0
0.6573 	0
0.658 	0
0.6587 	0
0.6594 	0
0.6601 	0
0.6608 	0
0.6615 	0
0.6622 	0
0.6629 	0
0.6636 	0
0.6643 	0
0.665 	0
0.6657 	0
0.6664 	0
0.6671 	0
0.6678 	0
0.6685 	0
0.6692 	0
0.6699 	0
0.6706 	0
0.6713 	0
0.672 	0
0.6727 	0
0.6734 	0
0.6741 	0
0.6748 	0
0.6755 	0
0.6762 	0
0.6769 	0
0.6776 	0
0.6783 	0
0.679 	0
0.6797 	0
0.6804 	0
0.6811 	0
0.6818 	0
0.6825 	0
0.6832 	0
0.6839 	0
0.6846 	0
0.6853 	0
0.686 	0
0.6867 	0
0.6874 	0
0.6881 	0
0.6888 	0
0.6895 	0
0.6902 	0
0.6909 	0
0.6916 	0
0.6923 	0
0.693 	0
0.6937 	0
0.6944 	0
0.6951 	0
0.6958 	0
0.6965 	0
0.6972 	0
0.6979 	0
0.6986 	0
0.6993 	0
0.7 	0
