0 	1
0.0007 	1
0.0014 	1
0.0021 	1
0.0028 	1
0.0035 	1
0.0042 	1
0.0049 	1
0.0056 	1
0.0063 	1
0.007 	1
0.0077 	1
0.0084 	1
0.0091 	1
0.0098 	1
0.0105 	1
0.0112 	1
0.0119 	1
0.0126 	1
0.0133 	1
0.014 	1
0.0147 	1
0.0154 	1
0.0161 	1
0.0168 	1
0.0175 	1
0.0182 	1
0.0189 	1
0.0196 	1
0.0203 	1
0.021 	1
0.0217 	1
0.0224 	1
0.0231 	1
0.0238 	1
0.0245 	1
0.0252 	1
0.0259 	1
0.0266 	1
0.0273 	1
0.028 	1
0.0287 	1
0.0294 	1
0.0301 	1
0.0308 	1
0.0315 	1
0.0322 	1
0.0329 	1
0.0336 	1
0.0343 	1
0.035 	1
0.0357 	1
0.0364 	1
0.0371 	1
0.0378 	1
0.0385 	1
0.0392 	1
0.0399 	1
0.0406 	1
0.0413 	1
0.042 	1
0.0427 	1
0.0434 	1
0.0441 	1
0.0448 	1
0.0455 	1
0.0462 	1
0.0469 	1
0.0476 	1
0.0483 	1
0.049 	1
0.0497 	1
0.0504 	1
0.0511 	1
0.0518 	1
0.0525 	1
0.0532 	1
0.0539 	1
0.0546 	1
0.0553 	1
0.056 	1
0.0567 	1
0.0574 	1
0.0581 	1
0.0588 	1
0.0595 	1
0.0602 	1
0.0609 	1
0.0616 	1
0.0623 	1
0.063 	1
0.0637 	1
0.0644 	1
0.0651 	1
0.0658 	1
0.0665 	1
0.0672 	1
0.0679 	1
0.0686 	1
0.0693 	1
0.07 	1
0.0707 	1
0.0714 	1
0.0721 	1
0.0728 	1
0.0735 	1
0.0742 	1
0.0749 	1
0.0756 	1
0.0763 	1
0.077 	1
0.0777 	1
0.0784 	1
0.0791 	1
0.0798 	1
0.0805 	1
0.0812 	1
0.0819 	1
0.0826 	1
0.0833 	1
0.084 	1
0.0847 	1
0.0854 	1
0.0861 	1
0.0868 	1
0.0875 	1
0.0882 	1
0.0889 	1
0.0896 	1
0.0903 	1
0.091 	1
0.0917 	1
0.0924 	1
0.0931 	1
0.0938 	1
0.0945 	1
0.0952 	1
0.0959 	1
0.0966 	1
0.0973 	1
0.098 	1
0.0987 	1
0.0994 	1
0.1001 	1
0.1008 	1
0.1015 	1
0.1022 	1
0.1029 	1
0.1036 	1
0.1043 	1
0.105 	1
0.1057 	1
0.1064 	1
0.1071 	1
0.1078 	1
0.1085 	1
0.1092 	1
0.1099 	1
0.1106 	1
0.1113 	1
0.112 	1
0.1127 	1
0.1134 	1
0.1141 	1
0.1148 	1
0.1155 	1
0.1162 	1
0.1169 	1
0.1176 	1
0.1183 	1
0.119 	1
0.1197 	1
0.1204 	1
0.1211 	1
0.1218 	1
0.1225 	1
0.1232 	1
0.1239 	1
0.1246 	1
0.1253 	1
0.126 	1
0.1267 	1
0.1274 	1
0.1281 	1
0.1288 	1
0.1295 	1
0.1302 	1
0.1309 	1
0.1316 	1
0.1323 	1
0.133 	1
0.1337 	1
0.1344 	1
0.1351 	1
0.1358 	1
0.1365 	1
0.1372 	1
0.1379 	1
0.1386 	1
0.1393 	1
0.14 	1
0.1407 	1
0.1414 	1
0.1421 	1
0.1428 	1
0.1435 	1
0.1442 	1
0.1449 	1
0.1456 	1
0.1463 	1
0.147 	1
0.1477 	1
0.1484 	1
0.1491 	1
0.1498 	1
0.1505 	1
0.1512 	1
0.1519 	1
0.1526 	1
0.1533 	1
0.154 	1
0.1547 	1
0.1554 	1
0.1561 	1
0.1568 	1
0.1575 	1
0.1582 	1
0.1589 	1
0.1596 	1
0.1603 	1
0.161 	1
0.1617 	1
0.1624 	1
0.1631 	1
0.1638 	1
0.1645 	1
0.1652 	1
0.1659 	1
0.1666 	1
0.1673 	1
0.168 	1
0.1687 	1
0.1694 	1
0.1701 	1
0.1708 	1
0.1715 	1
0.1722 	1
0.1729 	1
0.1736 	1
0.1743 	1
0.175 	1
0.1757 	1
0.1764 	1
0.1771 	1
0.1778 	1
0.1785 	1
0.1792 	1
0.1799 	1
0.1806 	1
0.1813 	1
0.182 	1
0.1827 	1
0.1834 	1
0.1841 	1
0.1848 	1
0.1855 	1
0.1862 	1
0.1869 	1
0.1876 	1
0.1883 	1
0.189 	1
0.1897 	1
0.1904 	1
0.1911 	1
0.1918 	1
0.1925 	1
0.1932 	1
0.1939 	1
0.1946 	1
0.1953 	1
0.196 	1
0.1967 	1
0.1974 	1
0.1981 	1
0.1988 	1
0.1995 	1
0.2002 	1
0.2009 	1
0.2016 	1
0.2023 	1
0.203 	1
0.2037 	1
0.2044 	1
0.2051 	1
0.2058 	1
0.2065 	1
0.2072 	1
0.2079 	1
0.2086 	1
0.2093 	1
0.21 	1
0.2107 	1
0.2114 	1
0.2121 	1
0.2128 	1
0.2135 	1
0.2142 	1
0.2149 	1
0.2156 	1
0.2163 	1
0.217 	1
0.2177 	1
0.2184 	1
0.2191 	1
0.2198 	1
0.2205 	1
0.2212 	1
0.2219 	1
0.2226 	1
0.2233 	1
0.224 	1
0.2247 	1
0.2254 	1
0.2261 	1
0.2268 	1
0.2275 	1
0.2282 	1
0.2289 	1
0.2296 	1
0.2303 	1
0.231 	1
0.2317 	1
0.2324 	1
0.2331 	1
0.2338 	1
0.2345 	1
0.2352 	1
0.2359 	1
0.2366 	1
0.2373 	1
0.238 	1
0.2387 	1
0.2394 	1
0.2401 	0.999938
0.2408 	0.999504
0.2415 	0.999062
0.2422 	0.998605
0.2429 	0.998148
0.2436 	0.99769
0.2443 	0.997233
0.245 	0.996776
0.2457 	0.926963
0.2464 	0.857152
0.2471 	0.787359
0.2478 	0.717565
0.2485 	0.647772
0.2492 	0.577978
0.2499 	0.508185
0.2506 	0.438581
0.2513 	0.369017
0.252 	0.299474
0.2527 	0.229931
0.2534 	0.160389
0.2541 	0.0908459
0.2548 	0.0213033
0.2555 	0.00130414
0.2562 	0.00111918
0.2569 	0.000914263
0.2576 	0.000707815
0.2583 	0.000501368
0.259 	0.00029492
0.2597 	8.84721e-05
0.2604 	1.39815e-09
0.2611 	1.08691e-09
0.2618 	8.70582e-10
0.2625 	6.80141e-10
0.2632 	4.897e-10
0.2639 	2.99258e-10
0.2646 	1.08817e-10
0.2653 	1.5911e-16
0.266 	6.58068e-17
0.2667 	2.8586e-17
0.2674 	2.25223e-17
0.2681 	1.64585e-17
0.2688 	1.03948e-17
0.2695 	4.33108e-18
0.2702 	4.40984e-23
0.2709 	1.49034e-23
0.2716 	2.77337e-25
0.2723 	2.20241e-25
0.273 	1.63144e-25
0.2737 	1.06048e-25
0.2744 	4.89509e-26
0.2751 	1.20299e-29
0.2758 	4.71965e-30
0.2765 	1.88382e-32
0.2772 	1.5071e-32
0.2779 	1.13039e-32
0.2786 	7.53676e-33
0.2793 	3.76962e-33
0.28 	2.62095e-36
0.2807 	1.15516e-36
0.2814 	3.3226e-39
0.2821 	2.67662e-39
0.2828 	2.03063e-39
0.2835 	1.38465e-39
0.2842 	7.38672e-40
0.2849 	9.269e-41
0.2856 	2.24317e-43
0.2863 	5.2283e-46
0.287 	4.23927e-46
0.2877 	3.25024e-46
0.2884 	2.26121e-46
0.2891 	1.27217e-46
0.2898 	2.83142e-47
0.2905 	3.59215e-50
0.2912 	2.4621e-51
0.2919 	5.96378e-53
0.2926 	4.61727e-53
0.2933 	3.27076e-53
0.294 	1.92425e-53
0.2947 	5.77734e-54
0.2954 	4.82812e-57
0.2961 	8.60167e-58
0.2968 	8.44088e-60
0.2975 	6.59458e-60
0.2982 	4.74828e-60
0.2989 	2.90199e-60
0.2996 	1.05569e-60
0.3003 	5.56893e-64
0.301 	1.47684e-64
0.3017 	1.35352e-66
0.3024 	1.06642e-66
0.3031 	7.79323e-67
0.3038 	4.92225e-67
0.3045 	2.05126e-67
0.3052 	5.59538e-71
0.3059 	1.88397e-71
0.3066 	2.56272e-73
0.3073 	2.03511e-73
0.308 	1.5075e-73
0.3087 	9.79885e-74
0.3094 	4.52272e-74
0.3101 	4.95877e-78
0.3108 	1.97659e-78
0.3115 	5.55033e-80
0.3122 	4.44026e-80
0.3129 	3.3302e-80
0.3136 	2.22013e-80
0.3143 	1.11006e-80
0.315 	3.9653e-85
0.3157 	1.82047e-85
0.3164 	1.29821e-86
0.3171 	1.04578e-86
0.3178 	7.93345e-87
0.3185 	5.40915e-87
0.3192 	2.88484e-87
0.3199 	3.60541e-88
0.3206 	1.61694e-92
0.3213 	3.11592e-93
0.322 	2.52641e-93
0.3227 	1.93691e-93
0.3234 	1.34741e-93
0.3241 	7.57909e-94
0.3248 	1.68407e-94
0.3255 	1.65495e-99
0.3262 	7.90755e-100
0.3269 	6.02661e-100
0.3276 	4.66575e-100
0.3283 	3.30489e-100
0.329 	1.94403e-100
0.3297 	5.83172e-101
0.3304 	2.30216e-106
0.3311 	1.73365e-106
0.3318 	1.37542e-106
0.3325 	1.07455e-106
0.3332 	7.7367e-107
0.3339 	4.72794e-107
0.3346 	1.71917e-107
0.3353 	4.05007e-113
0.336 	3.53797e-113
0.3367 	2.95247e-113
0.3374 	2.32618e-113
0.3381 	1.6999e-113
0.3388 	1.07361e-113
0.3395 	4.47322e-114
0.3402 	7.49729e-120
0.3409 	6.80777e-120
0.3416 	5.85979e-120
0.3423 	4.65336e-120
0.343 	3.44692e-120
0.3437 	2.24048e-120
0.3444 	1.03404e-120
0.3451 	1.32784e-126
0.3458 	1.21744e-126
0.3465 	1.07003e-126
0.3472 	8.56024e-127
0.3479 	6.42016e-127
0.3486 	4.28008e-127
0.3493 	2.13999e-127
0.35 	2.17135e-133
0.3507 	1.99659e-133
0.3514 	1.78491e-133
0.3521 	1.43785e-133
0.3528 	1.09078e-133
0.3535 	7.43706e-134
0.3542 	3.96636e-134
0.3549 	4.95666e-135
0.3556 	2.98365e-140
0.3563 	2.70875e-140
0.357 	2.19628e-140
0.3577 	1.68381e-140
0.3584 	1.17134e-140
0.3591 	6.58869e-141
0.3598 	1.46398e-141
0.3605 	4.84023e-147
0.3612 	4.38386e-147
0.3619 	3.59747e-147
0.3626 	2.78571e-147
0.3633 	1.97394e-147
0.364 	1.16217e-147
0.3647 	3.504e-148
0.3654 	2.41613e-150
0.3661 	2.20869e-150
0.3668 	1.84705e-150
0.3675 	1.44335e-150
0.3682 	1.03965e-150
0.3689 	6.35957e-151
0.3696 	2.32261e-151
0.3703 	1.54032e-153
0.371 	1.41243e-153
0.3717 	1.20285e-153
0.3724 	9.47879e-154
0.3731 	6.9291e-154
0.3738 	4.37941e-154
0.3745 	1.82972e-154
0.3752 	8.42397e-157
0.3759 	7.73437e-157
0.3766 	6.70021e-157
0.3773 	5.32149e-157
0.378 	3.94277e-157
0.3787 	2.56405e-157
0.3794 	1.18533e-157
0.3801 	3.58899e-160
0.3808 	3.29863e-160
0.3815 	2.90459e-160
0.3822 	2.32391e-160
0.3829 	1.74322e-160
0.3836 	1.16254e-160
0.3843 	5.8186e-161
0.385 	1.2049e-163
0.3857 	1.10852e-163
0.3864 	9.91504e-164
0.3871 	7.98773e-164
0.3878 	6.06042e-164
0.3885 	4.1331e-164
0.3892 	2.20579e-164
0.3899 	2.7848e-165
0.3906 	3.01702e-167
0.3913 	2.73944e-167
0.392 	2.2213e-167
0.3927 	1.70316e-167
0.3934 	1.18502e-167
0.3941 	6.66879e-168
0.3948 	1.48737e-168
0.3955 	6.79954e-171
0.3962 	6.22271e-171
0.3969 	5.11027e-171
0.3976 	3.95663e-171
0.3983 	2.80299e-171
0.399 	1.64935e-171
0.3997 	4.95716e-172
0.4004 	1.29148e-174
0.4011 	1.18323e-174
0.4018 	9.89924e-175
0.4025 	7.73424e-175
0.4032 	5.56923e-175
0.4039 	3.40422e-175
0.4046 	1.23922e-175
0.4053 	2.09826e-178
0.406 	1.92446e-178
0.4067 	1.63894e-178
0.4074 	1.29135e-178
0.4081 	9.43753e-179
0.4088 	5.9616e-179
0.4095 	2.48567e-179
0.4102 	2.9617e-182
0.4109 	2.71924e-182
0.4116 	2.35557e-182
0.4123 	1.87067e-182
0.413 	1.38577e-182
0.4137 	9.00875e-183
0.4144 	4.15977e-183
0.4151 	3.6857e-186
0.4158 	3.38747e-186
0.4165 	2.98272e-186
0.4172 	2.38625e-186
0.4179 	1.78978e-186
0.4186 	1.19331e-186
0.4193 	5.96846e-187
0.42 	4.06712e-190
0.4207 	3.74175e-190
0.4214 	3.3467e-190
0.4221 	2.69602e-190
0.4228 	2.04535e-190
0.4235 	1.39467e-190
0.4242 	7.43995e-191
0.4249 	9.33193e-192
0.4256 	3.70084e-194
0.4263 	3.3603e-194
0.427 	2.72463e-194
0.4277 	2.08896e-194
0.4284 	1.45329e-194
0.4291 	8.17614e-195
0.4298 	1.81943e-195
0.4305 	3.33348e-198
0.4312 	3.05066e-198
0.4319 	2.50522e-198
0.4326 	1.93959e-198
0.4333 	1.37395e-198
0.434 	8.08314e-199
0.4347 	2.42677e-199
0.4354 	2.76156e-202
0.4361 	2.53007e-202
0.4368 	2.11669e-202
0.4375 	1.65371e-202
0.4382 	1.19072e-202
0.4389 	7.27741e-203
0.4396 	2.64758e-203
0.4403 	2.11422e-206
0.441 	1.93908e-206
0.4417 	1.65137e-206
0.4424 	1.30111e-206
0.4431 	9.50846e-207
0.4438 	6.00585e-207
0.4445 	2.50324e-207
0.4452 	1.51149e-210
0.4459 	1.38775e-210
0.4466 	1.20214e-210
0.4473 	9.5466e-211
0.448 	7.07179e-211
0.4487 	4.59699e-211
0.4494 	2.12218e-211
0.4501 	1.02762e-214
0.4508 	9.44467e-215
0.4515 	8.31612e-215
0.4522 	6.65301e-215
0.4529 	4.98991e-215
0.4536 	3.3268e-215
0.4543 	1.66369e-215
0.455 	6.64491e-219
0.4557 	6.1133e-219
0.4564 	5.46783e-219
0.4571 	4.40471e-219
0.4578 	3.34159e-219
0.4585 	2.27847e-219
0.4592 	1.21534e-219
0.4599 	1.52225e-220
0.4606 	3.76463e-223
0.4613 	3.41821e-223
0.462 	2.77156e-223
0.4627 	2.12491e-223
0.4634 	1.47826e-223
0.4641 	8.31609e-224
0.4648 	1.84959e-224
0.4655 	2.21833e-227
0.4662 	2.03012e-227
0.4669 	1.66714e-227
0.4676 	1.29071e-227
0.4683 	9.14287e-228
0.469 	5.37862e-228
0.4697 	1.61437e-228
0.4704 	1.25373e-231
0.4711 	1.14863e-231
0.4718 	9.60957e-232
0.4725 	7.5076e-232
0.4732 	5.40564e-232
0.4739 	3.30368e-232
0.4746 	1.20171e-232
0.4753 	6.752e-236
0.476 	6.19269e-236
0.4767 	5.27381e-236
0.4774 	4.15519e-236
0.4781 	3.03656e-236
0.4788 	1.91794e-236
0.4795 	7.99313e-237
0.4802 	3.44644e-240
0.4809 	3.16428e-240
0.4816 	2.74105e-240
0.4823 	2.17675e-240
0.483 	1.61244e-240
0.4837 	1.04814e-240
0.4844 	4.8383e-241
0.4851 	1.67478e-244
0.4858 	1.53926e-244
0.4865 	1.35533e-244
0.4872 	1.08428e-244
0.4879 	8.13222e-245
0.4886 	5.42169e-245
0.4893 	2.71116e-245
0.49 	7.7378e-249
0.4907 	7.11874e-249
0.4914 	6.3671e-249
0.4921 	5.1291e-249
0.4928 	3.89111e-249
0.4935 	2.65311e-249
0.4942 	1.41512e-249
0.4949 	1.77125e-250
0.4956 	3.11238e-253
0.4963 	2.82597e-253
0.497 	2.29135e-253
0.4977 	1.75673e-253
0.4984 	1.2221e-253
0.4991 	6.8748e-254
0.4998 	1.52857e-254
0.5005 	1.28355e-257
0.5012 	1.17465e-257
0.5019 	9.64617e-258
0.5026 	7.4681e-258
0.5033 	5.29002e-258
0.504 	3.11195e-258
0.5047 	9.33872e-259
0.5054 	5.02375e-262
0.5061 	4.60261e-262
0.5068 	3.85057e-262
0.5075 	3.00829e-262
0.5082 	2.16601e-262
0.5089 	1.32373e-262
0.5096 	4.81452e-263
0.5103 	1.86893e-266
0.511 	1.71412e-266
0.5117 	1.45977e-266
0.5124 	1.15013e-266
0.5131 	8.40495e-267
0.5138 	5.30858e-267
0.5145 	2.21221e-267
0.5152 	6.59307e-271
0.5159 	6.0533e-271
0.5166 	5.24364e-271
0.5173 	4.1641e-271
0.518 	3.08456e-271
0.5187 	2.00502e-271
0.5194 	9.25484e-272
0.5201 	2.2003e-275
0.5208 	2.02224e-275
0.5215 	1.7806e-275
0.5222 	1.42449e-275
0.5229 	1.06838e-275
0.5236 	7.1227e-276
0.5243 	3.5616e-276
0.525 	6.96094e-280
0.5257 	6.40403e-280
0.5264 	5.72784e-280
0.5271 	4.61412e-280
0.5278 	3.5004e-280
0.5285 	2.38669e-280
0.5292 	1.27297e-280
0.5299 	1.59251e-281
0.5306 	1.93861e-284
0.5313 	1.76022e-284
0.532 	1.42721e-284
0.5327 	1.09421e-284
0.5334 	7.61199e-285
0.5341 	4.28192e-285
0.5348 	9.51861e-286
0.5355 	5.60849e-289
0.5362 	5.13262e-289
0.5369 	4.21489e-289
0.5376 	3.26316e-289
0.5383 	2.31144e-289
0.539 	1.35972e-289
0.5397 	4.07992e-290
0.5404 	1.54517e-293
0.5411 	1.41563e-293
0.5418 	1.18433e-293
0.5425 	9.25261e-294
0.5432 	6.66196e-294
0.5439 	4.0713e-294
0.5446 	1.48065e-294
0.5453 	4.05323e-298
0.546 	3.71747e-298
0.5467 	3.16585e-298
0.5474 	2.49432e-298
0.5481 	1.82279e-298
0.5488 	1.15126e-298
0.5495 	4.79732e-299
0.5502 	1.0135e-302
0.5509 	9.30528e-303
0.5516 	8.06065e-303
0.5523 	6.40113e-303
0.553 	4.74162e-303
0.5537 	3.08211e-303
0.5544 	1.42259e-303
0.5551 	2.43782e-307
0.5558 	2.24054e-307
0.5565 	1.97281e-307
0.5572 	1.57825e-307
0.5579 	1.1837e-307
0.5586 	7.89144e-308
0.5593 	3.94589e-308
0.56 	5.63208e-312
0.5607 	5.18148e-312
0.5614 	4.63438e-312
0.5621 	3.73326e-312
0.5628 	2.83215e-312
0.5635 	1.93103e-312
0.5642 	1.02992e-312
0.5649 	1.28803e-313
0.5656 	1.14233e-316
0.5663 	1.03721e-316
0.567 	8.40977e-317
0.5677 	6.44746e-317
0.5684 	4.48516e-317
0.5691 	2.52285e-317
0.5698 	5.6055e-318
0.5705 	0
0.5712 	0
0.5719 	0
0.5726 	0
0.5733 	0
0.574 	0
0.5747 	0
0.5754 	0
0.5761 	0
0.5768 	0
0.5775 	0
0.5782 	0
0.5789 	0
0.5796 	0
0.5803 	0
0.581 	0
0.5817 	0
0.5824 	0
0.5831 	0
0.5838 	0
0.5845 	0
0.5852 	0
0.5859 	0
0.5866 	0
0.5873 	0
0.588 	0
0.5887 	0
0.5894 	0
0.5901 	0
0.5908 	0
0.5915 	0
0.5922 	0
0.5929 	0
0.5936 	0
0.5943 	0
0.595 	0
0.5957 	0
0.5964 	0
0.5971 	0
0.5978 	0
0.5985 	0
0.5992 	0
0.5999 	0
0.6006 	0
0.6013 	0
0.602 	0
0.6027 	0
0.6034 	0
0.6041 	0
0.6048 	0
0.6055 	0
0.6062 	0
0.6069 	0
0.6076 	0
0.6083 	0
0.609 	0
0.6097 	0
0.6104 	0
0.6111 	0
0.6118 	0
0.6125 	0
0.6132 	0
0.6139 	0
0.6146 	0
0.6153 	0
0.616 	0
0.6167 	0
0.6174 	0
0.6181 	0
0.6188 	0
0.6195 	0
0.6202 	0
0.6209 	0
0.6216 	0
0.6223 	0
0.623 	0
0.6237 	0
0.6244 	0
0.6251 	0
0.6258 	0
0.6265 	0
0.6272 	0
0.6279 	0
0.6286 	0
0.6293 	0
0.63 	0
0.6307 	0
0.6314 	0
0.6321 	0
0.6328 	0
0.6335 	0
0.6342 	0
0.6349 	0
0.6356 	0
0.6363 	0
0.637 	0
0.6377 	0
0.6384 	0
0.6391 	0
0.6398 	0
0.6405 	0
0.6412 	0
0.6419 	0
0.6426 	0
0.6433 	0
0.644 	0
0.6447 	0
0.6454 	0
0.6461 	0
0.6468 	0
0.6475 	0
0.6482 	0
0.6489 	0
0.6496 	0
0.6503 	0
0.651 	0
0.6517 	0
0.6524 	0
0.6531 	0
0.6538 	0
0.6545 	0
0.6552 	0
0.6559 	0
0.6566 	0
0.6573 	0
0.658 	0
0.6587 	0
0.6594 	0
0.6601 	0
0.6608 	0
0.6615 	0
0.6622 	0
0.6629 	0
0.6636 	0
0.6643 	0
0.665 	0
0.6657 	0
0.6664 	0
0.6671 	0
0.6678 	0
0.6685 	0
0.6692 	0
0.6699 	0
0.6706 	0
0.6713 	0
0.672 	0
0.6727 	0
0.6734 	0
0.6741 	0
0.6748 	0
0.6755 	0
0.6762 	0
0.6769 	0
0.6776 	0
0.6783 	0
0.679 	0
0.6797 	0
0.6804 	0
0.6811 	0
0.6818 	0
0.6825 	0
0.6832 	0
0.6839 	0
0.6846 	0
0.6853 	0
0.686 	0
0.6867 	0
0.6874 	0
0.6881 	0
0.6888 	0
0.6895 	0
0.6902 	0
0.6909 	0
0.6916 	0
0.6923 	0
0.693 	0
0.6937 	0
0.6944 	0
0.6951 	0
0.6958 	0
0.6965 	0
0.6972 	0
0.6979 	0
0.6986 	0
0.6993 	0
0.7 	0
