0 	1
0.0007 	1
0.0014 	1
0.0021 	1
0.0028 	1
0.0035 	1
0.0042 	1
0.0049 	1
0.0056 	1
0.0063 	1
0.007 	1
0.0077 	1
0.0084 	1
0.0091 	1
0.0098 	1
0.0105 	1
0.0112 	1
0.0119 	1
0.0126 	1
0.0133 	1
0.014 	1
0.0147 	1
0.0154 	1
0.0161 	1
0.0168 	1
0.0175 	1
0.0182 	1
0.0189 	1
0.0196 	1
0.0203 	1
0.021 	1
0.0217 	1
0.0224 	1
0.0231 	1
0.0238 	1
0.0245 	1
0.0252 	1
0.0259 	1
0.0266 	1
0.0273 	1
0.028 	1
0.0287 	1
0.0294 	1
0.0301 	1
0.0308 	1
0.0315 	1
0.0322 	1
0.0329 	1
0.0336 	1
0.0343 	1
0.035 	1
0.0357 	1
0.0364 	1
0.0371 	1
0.0378 	1
0.0385 	1
0.0392 	1
0.0399 	1
0.0406 	1
0.0413 	1
0.042 	1
0.0427 	1
0.0434 	1
0.0441 	1
0.0448 	1
0.0455 	1
0.0462 	1
0.0469 	1
0.0476 	1
0.0483 	1
0.049 	1
0.0497 	1
0.0504 	1
0.0511 	1
0.0518 	1
0.0525 	1
0.0532 	1
0.0539 	1
0.0546 	1
0.0553 	1
0.056 	1
0.0567 	1
0.0574 	1
0.0581 	1
0.0588 	1
0.0595 	1
0.0602 	1
0.0609 	1
0.0616 	1
0.0623 	1
0.0637 	1
0.0644 	1
0.0651 	1
0.0658 	1
0.0665 	1
0.0672 	1
0.0679 	1
0.0686 	1
0.0693 	1
0.07 	1
0.0707 	1
0.0714 	1
0.0721 	1
0.0728 	1
0.0735 	1
0.0742 	1
0.0749 	1
0.0756 	1
0.0763 	1
0.077 	1
0.0777 	1
0.0784 	1
0.0791 	1
0.0798 	1
0.0805 	1
0.0812 	1
0.0819 	1
0.0826 	1
0.0833 	1
0.084 	1
0.0847 	1
0.0854 	1
0.0861 	1
0.0868 	1
0.0875 	1
0.0882 	1
0.0889 	1
0.0896 	1
0.0903 	1
0.091 	1
0.0917 	1
0.0924 	1
0.0931 	1
0.0938 	1
0.0945 	1
0.0952 	1
0.0959 	1
0.0966 	1
0.0973 	1
0.098 	1
0.0987 	1
0.0994 	1
0.1001 	1
0.1008 	1
0.1015 	1
0.1022 	1
0.1029 	1
0.1036 	1
0.1043 	1
0.105 	1
0.1057 	1
0.1064 	1
0.1071 	1
0.1078 	1
0.1085 	1
0.1092 	1
0.1099 	1
0.1106 	1
0.1113 	1
0.112 	1
0.1127 	1
0.1134 	1
0.1141 	1
0.1148 	1
0.1155 	1
0.1162 	1
0.1169 	1
0.1176 	1
0.1183 	1
0.119 	1
0.1197 	1
0.1204 	1
0.1211 	1
0.1218 	1
0.1225 	1
0.1232 	1
0.1239 	1
0.1246 	1
0.1253 	1
0.126 	1
0.1267 	1
0.1274 	1
0.1281 	1
0.1288 	1
0.1295 	1
0.1302 	1
0.1316 	1
0.1323 	1
0.133 	1
0.1337 	1
0.1344 	1
0.1351 	1
0.1358 	1
0.1365 	1
0.1372 	1
0.1379 	1
0.1386 	1
0.1393 	1
0.14 	1
0.1407 	1
0.1421 	1
0.1435 	1
0.1442 	1
0.1449 	1
0.1456 	1
0.1463 	1
0.147 	1
0.1477 	1
0.1484 	1
0.1491 	1
0.1498 	1
0.1505 	1
0.1512 	1
0.1519 	1
0.1526 	1
0.1533 	1
0.154 	1
0.1547 	1
0.1554 	1
0.1568 	1
0.1575 	1
0.1582 	1
0.1589 	1
0.1596 	1
0.1603 	1
0.161 	1
0.1617 	1
0.1624 	1
0.1631 	1
0.1638 	1
0.1645 	1
0.1652 	1
0.1659 	1
0.1666 	1
0.1673 	1
0.168 	1
0.1687 	1
0.1694 	1
0.1701 	1
0.1715 	1
0.1722 	1
0.1729 	1
0.1736 	1
0.1743 	1
0.175 	1
0.1764 	1
0.1771 	1
0.1778 	1
0.1785 	1
0.1792 	1
0.1799 	1
0.1806 	1
0.1813 	1
0.182 	1
0.1827 	1
0.1834 	1
0.1841 	1
0.1848 	1
0.1855 	1
0.1862 	1
0.1869 	1
0.1876 	1
0.1883 	1
0.189 	1
0.1897 	1
0.1904 	1
0.1911 	1
0.1918 	1
0.1925 	1
0.1939 	1
0.1946 	1
0.1953 	1
0.196 	1
0.1967 	1
0.1974 	1
0.1981 	1
0.1988 	1
0.1995 	1
0.2002 	1
0.2009 	1
0.2016 	1
0.2023 	1
0.203 	1
0.2037 	1
0.2044 	1
0.2051 	1
0.2058 	1
0.2065 	1
0.2072 	1
0.2079 	1
0.2086 	1
0.2093 	1
0.21 	1
0.2107 	1
0.2114 	1
0.2121 	1
0.2128 	1
0.2135 	1
0.2142 	1
0.2149 	1
0.2156 	1
0.2163 	1
0.217 	1
0.2177 	1
0.2184 	1
0.2191 	1
0.2198 	1
0.2205 	1
0.2212 	1
0.2219 	1
0.2226 	1
0.2233 	1
0.224 	1
0.2247 	1
0.2254 	1
0.2261 	1
0.2268 	1
0.2275 	1
0.2282 	1
0.2289 	1
0.2296 	1
0.2303 	1
0.231 	1
0.2317 	1
0.2324 	1
0.2331 	1
0.2338 	1
0.2345 	1
0.2352 	1
0.2359 	1
0.2366 	1
0.2373 	1
0.238 	1
0.2387 	1
0.2394 	1
0.2401 	0.999964
0.2408 	0.999713
0.2415 	0.999447
0.2422 	0.999155
0.2429 	0.998863
0.2436 	0.99857
0.2443 	0.998278
0.245 	0.997985
0.2457 	0.928272
0.2464 	0.858566
0.2471 	0.788887
0.2478 	0.719207
0.2485 	0.649528
0.2492 	0.579849
0.2499 	0.51017
0.2506 	0.440431
0.2513 	0.370685
0.252 	0.300977
0.2527 	0.23127
0.2534 	0.161562
0.2541 	0.0918545
0.2548 	0.0221469
0.2555 	0.00202571
0.2569 	0.00142075
0.2576 	0.00109993
0.2583 	0.00077912
0.259 	0.000458307
0.2597 	0.000137494
0.2604 	2.02868e-09
0.2611 	1.77723e-09
0.2618 	1.47059e-09
0.2625 	1.1489e-09
0.2632 	8.27206e-10
0.2639 	5.05515e-10
0.2646 	1.83824e-10
0.2653 	5.51779e-16
0.266 	4.8797e-16
0.2667 	4.09359e-16
0.2674 	3.22525e-16
0.2681 	2.35692e-16
0.2688 	1.48858e-16
0.2695 	6.20242e-17
0.2702 	2.03084e-22
0.2709 	1.81482e-22
0.2716 	1.54751e-22
0.2723 	1.2289e-22
0.273 	9.10298e-23
0.2737 	5.91694e-23
0.2744 	2.7309e-23
0.2751 	1.31414e-28
0.2758 	1.19238e-28
0.2765 	1.03982e-28
0.2772 	8.3186e-29
0.2779 	6.23895e-29
0.2786 	4.15931e-29
0.2793 	2.07966e-29
0.28 	1.38963e-34
0.2807 	1.27279e-34
0.2814 	1.13376e-34
0.2821 	9.13304e-35
0.2828 	6.92852e-35
0.2835 	4.72399e-35
0.2842 	2.51947e-35
0.2849 	3.14946e-36
0.2856 	1.28301e-40
0.2863 	1.16259e-40
0.287 	9.42643e-41
0.2877 	7.22693e-41
0.2884 	5.02743e-41
0.2891 	2.82794e-41
0.2898 	6.28439e-42
0.2905 	1.02061e-46
0.2912 	9.32084e-47
0.2919 	7.65296e-47
0.2926 	5.92487e-47
0.2933 	4.19679e-47
0.294 	2.4687e-47
0.2947 	7.40615e-48
0.2954 	6.76378e-53
0.2961 	6.17621e-53
0.2968 	5.16292e-53
0.2975 	4.03353e-53
0.2982 	2.90414e-53
0.2989 	1.77476e-53
0.2996 	6.45369e-54
0.3003 	4.21359e-59
0.301 	3.83953e-59
0.3017 	3.26123e-59
0.3024 	2.56945e-59
0.3031 	1.87768e-59
0.3038 	1.1859e-59
0.3045 	4.94129e-60
0.3052 	3.28165e-65
0.3059 	2.9783e-65
0.3073 	2.03517e-65
0.3087 	9.799e-66
0.3094 	4.52264e-66
0.3101 	3.89796e-71
0.3108 	3.52652e-71
0.3115 	3.06855e-71
0.3122 	2.45484e-71
0.3129 	1.84113e-71
0.3136 	1.22743e-71
0.3143 	6.13716e-72
0.315 	6.22862e-77
0.3157 	5.63973e-77
0.3164 	4.96994e-77
0.3171 	4.00357e-77
0.3178 	3.03719e-77
0.3185 	2.07082e-77
0.3192 	1.10444e-77
0.3199 	1.38065e-78
0.3206 	1.09093e-82
0.3213 	9.76784e-83
0.322 	7.91987e-83
0.3227 	6.07191e-83
0.3234 	4.22394e-83
0.3241 	2.37598e-83
0.3248 	5.28011e-84
0.3255 	1.96923e-88
0.3262 	1.78081e-88
0.3269 	1.46101e-88
0.3276 	1.13111e-88
0.3283 	8.01201e-89
0.329 	4.71296e-89
0.3297 	1.41391e-89
0.3304 	3.25751e-94
0.3311 	2.95629e-94
0.3318 	2.46762e-94
0.3325 	1.92783e-94
0.3332 	1.38804e-94
0.3339 	8.48248e-95
0.3346 	3.08457e-95
0.3353 	4.9211e-100
0.336 	4.47914e-100
0.3367 	3.80275e-100
0.3374 	2.99611e-100
0.3381 	2.18946e-100
0.3388 	1.38282e-100
0.3395 	5.7618e-101
0.3402 	6.7803e-106
0.3409 	6.18668e-106
0.3416 	5.34015e-106
0.3423 	4.24071e-106
0.343 	3.14127e-106
0.3437 	2.04183e-106
0.3444 	9.42386e-107
0.3451 	8.51331e-112
0.3458 	7.7846e-112
0.3465 	6.8284e-112
0.3472 	5.46272e-112
0.3479 	4.09704e-112
0.3486 	2.73137e-112
0.3493 	1.36569e-112
0.35 	9.73629e-118
0.3507 	8.91968e-118
0.3514 	7.94693e-118
0.3521 	6.4017e-118
0.3528 	4.85646e-118
0.3535 	3.31123e-118
0.3542 	1.76599e-118
0.3549 	2.20758e-119
0.3556 	9.30472e-124
0.3563 	8.41584e-124
0.357 	6.82366e-124
0.3577 	5.23147e-124
0.3584 	3.63929e-124
0.3591 	2.0471e-124
0.3598 	4.54919e-125
0.3605 	8.83744e-130
0.3612 	8.05928e-130
0.3619 	6.61639e-130
0.3626 	5.12237e-130
0.3633 	3.62834e-130
0.364 	2.13432e-130
0.3647 	6.40303e-131
0.3654 	7.64441e-136
0.3661 	6.98292e-136
0.3668 	5.8378e-136
0.3675 	4.56078e-136
0.3682 	3.28377e-136
0.3689 	2.00675e-136
0.3696 	7.29731e-137
0.3703 	6.02518e-142
0.371 	5.51228e-142
0.3717 	4.68961e-142
0.3724 	3.69485e-142
0.3738 	1.70532e-142
0.3745 	7.1056e-143
0.3752 	1.39724e-147
0.3759 	1.20982e-147
0.3766 	1.01258e-147
0.3773 	8.05488e-148
0.378 	5.984e-148
0.3787 	3.91313e-148
0.3794 	1.84225e-148
0.3801 	6.60995e-150
0.3808 	5.82866e-150
0.3815 	4.97281e-150
0.3822 	3.98275e-150
0.3829 	2.99269e-150
0.3836 	2.00263e-150
0.3843 	1.01257e-150
0.385 	2.25128e-152
0.3857 	2.02171e-152
0.3864 	1.7679e-152
0.3871 	1.42522e-152
0.3878 	1.08255e-152
0.3885 	7.39873e-153
0.3892 	3.97197e-153
0.3899 	5.45217e-154
0.3906 	5.12197e-155
0.3913 	4.57698e-155
0.392 	3.71309e-155
0.3927 	2.8492e-155
0.3934 	1.9853e-155
0.3941 	1.12141e-155
0.3948 	2.57519e-156
0.3955 	1.00144e-157
0.3969 	7.44093e-158
0.3976 	5.76447e-158
0.3983 	4.08802e-158
0.399 	2.41156e-158
0.3997 	7.35105e-159
0.4004 	1.58061e-160
0.4011 	1.43736e-160
0.4018 	1.20067e-160
0.4025 	9.38498e-161
0.4032 	6.76324e-161
0.4039 	4.14151e-161
0.4046 	1.51977e-161
0.4053 	2.0845e-163
0.4067 	1.61566e-163
0.4081 	9.31257e-164
0.4088 	5.89053e-164
0.4095 	2.46849e-164
0.4102 	2.36011e-166
0.4109 	2.15683e-166
0.4116 	1.8636e-166
0.4123 	1.4804e-166
0.413 	1.09721e-166
0.4137 	7.14018e-167
0.4144 	3.30825e-167
0.4151 	2.34581e-169
0.4158 	2.14694e-169
0.4165 	1.88462e-169
0.4172 	1.50811e-169
0.4179 	1.13161e-169
0.4186 	7.551e-170
0.4193 	3.78593e-170
0.42 	2.086e-172
0.4207 	1.9114e-172
0.4214 	1.70331e-172
0.4221 	1.37244e-172
0.4228 	1.04156e-172
0.4235 	7.10687e-173
0.4242 	3.79811e-173
0.4249 	4.89348e-174
0.4256 	1.54712e-175
0.4263 	1.39861e-175
0.427 	1.13424e-175
0.4277 	8.6987e-176
0.4284 	6.055e-176
0.4291 	3.41131e-176
0.4298 	7.67616e-177
0.4305 	1.15398e-178
0.4312 	1.05108e-178
0.4319 	8.62964e-179
0.4326 	6.68292e-179
0.4333 	4.73619e-179
0.434 	2.78946e-179
0.4347 	8.42729e-180
0.4354 	8.01366e-182
0.4361 	7.30777e-182
0.4368 	6.10768e-182
0.4375 	4.77281e-182
0.4382 	3.43793e-182
0.4389 	2.10306e-182
0.4396 	7.68194e-183
0.4403 	5.21605e-185
0.441 	4.76256e-185
0.4417 	4.04891e-185
0.4424 	3.19075e-185
0.4431 	2.33258e-185
0.4438 	1.47441e-185
0.4445 	6.16247e-186
0.4452 	3.19318e-188
0.4459 	2.91942e-188
0.4466 	2.52301e-188
0.4473 	2.00395e-188
0.448 	1.48489e-188
0.4487 	9.65831e-189
0.4494 	4.46771e-189
0.4501 	1.84022e-191
0.4508 	1.68477e-191
0.4515 	1.47925e-191
0.4522 	1.1836e-191
0.4529 	8.87949e-192
0.4536 	5.92299e-192
0.4543 	2.96648e-192
0.455 	9.97793e-195
0.4557 	9.14785e-195
0.4564 	8.15601e-195
0.4571 	6.5711e-195
0.4578 	4.98619e-195
0.4585 	3.40127e-195
0.4592 	1.81636e-195
0.4599 	2.31442e-196
0.4606 	4.66837e-198
0.4613 	4.22451e-198
0.462 	3.42573e-198
0.4627 	2.62695e-198
0.4634 	1.82816e-198
0.4641 	1.02938e-198
0.4648 	2.30601e-199
0.4655 	2.23716e-201
0.4662 	2.04083e-201
0.4669 	1.67568e-201
0.4676 	1.29754e-201
0.4683 	9.19397e-202
0.469 	5.41256e-202
0.4697 	1.63116e-202
0.4704 	1.00638e-204
0.4711 	9.19485e-205
0.4718 	7.68803e-205
0.4725 	6.00723e-205
0.4732 	4.32644e-205
0.4739 	2.64565e-205
0.4746 	9.64858e-206
0.4753 	4.25081e-208
0.476 	3.88952e-208
0.4767 	3.30943e-208
0.4774 	2.6078e-208
0.4781 	1.90616e-208
0.4788 	1.20453e-208
0.4795 	5.02895e-209
0.4802 	1.68724e-211
0.4809 	1.546e-211
0.4816 	1.33774e-211
0.4823 	1.06245e-211
0.483 	7.87168e-212
0.4837 	5.11882e-212
0.4844 	2.36597e-212
0.4851 	6.30112e-215
0.4858 	5.78132e-215
0.4865 	5.08417e-215
0.4872 	4.06778e-215
0.4879 	3.05139e-215
0.4886 	2.035e-215
0.4893 	1.01861e-215
0.49 	2.2175e-218
0.4907 	2.03714e-218
0.4914 	1.81964e-218
0.4928 	1.11229e-218
0.4942 	4.04931e-219
0.4949 	5.12536e-220
0.4956 	6.7757e-222
0.4963 	6.14386e-222
0.497 	4.98193e-222
0.4977 	3.82001e-222
0.4984 	2.65809e-222
0.4991 	1.49616e-222
0.4998 	3.3424e-223
0.5005 	2.13126e-225
0.5012 	1.94799e-225
0.5019 	1.59964e-225
0.5026 	1.23858e-225
0.5033 	8.7752e-226
0.504 	5.16463e-226
0.5047 	1.55405e-226
0.5054 	6.35193e-229
0.5061 	5.81324e-229
0.5068 	4.8624e-229
0.5075 	3.79916e-229
0.5082 	2.73592e-229
0.5089 	1.67267e-229
0.5096 	6.09429e-230
0.5103 	1.7972e-232
0.511 	1.64682e-232
0.5117 	1.402e-232
0.5124 	1.10471e-232
0.5131 	8.07422e-233
0.5138 	5.10133e-233
0.5145 	2.12844e-233
0.5152 	4.83652e-236
0.5159 	4.4371e-236
0.5166 	3.84201e-236
0.5173 	3.05127e-236
0.518 	2.26052e-236
0.5187 	1.46978e-236
0.5194 	6.79036e-237
0.5201 	1.2403e-239
0.5208 	1.13916e-239
0.5222 	8.02108e-240
0.5229 	6.01657e-240
0.5236 	4.01206e-240
0.5243 	2.00755e-240
0.525 	3.03635e-243
0.5257 	2.79183e-243
0.5264 	2.49575e-243
0.5271 	2.0106e-243
0.5278 	1.52545e-243
0.5285 	1.04031e-243
0.5292 	5.55157e-244
0.5299 	7.00096e-245
0.5306 	6.54277e-247
0.5313 	5.93744e-247
0.532 	4.81444e-247
0.5327 	3.69143e-247
0.5334 	2.56843e-247
0.5341 	1.44542e-247
0.5348 	3.22417e-248
0.5355 	1.46868e-250
0.5362 	1.34337e-250
0.5369 	1.10318e-250
0.5376 	8.54147e-251
0.5383 	6.05117e-251
0.539 	3.56088e-251
0.5397 	1.07058e-251
0.5404 	3.16281e-254
0.5418 	2.42294e-254
0.5425 	1.89307e-254
0.5432 	1.3632e-254
0.5439 	8.33329e-255
0.5446 	3.0346e-255
0.5453 	6.54428e-258
0.546 	5.99977e-258
0.5467 	5.10883e-258
0.5474 	4.02542e-258
0.5481 	2.94201e-258
0.5488 	1.8586e-258
0.5495 	7.75197e-259
0.5502 	1.30293e-261
0.5509 	1.19584e-261
0.5516 	1.0357e-261
0.5523 	8.2252e-262
0.553 	6.09339e-262
0.5537 	3.96159e-262
0.5544 	1.82979e-262
0.5551 	2.49945e-265
0.5565 	2.02162e-265
0.5579 	1.21315e-265
0.5586 	8.08924e-266
0.5593 	4.04693e-266
0.56 	4.62602e-269
0.5607 	4.25476e-269
0.5614 	3.80456e-269
0.5621 	3.06494e-269
0.5628 	2.32533e-269
0.5635 	1.58571e-269
0.5642 	8.46094e-270
0.5649 	1.06477e-270
0.5656 	7.61471e-273
0.5663 	6.91209e-273
0.567 	5.60466e-273
0.5677 	4.29724e-273
0.5684 	2.98981e-273
0.5691 	1.68238e-273
0.5698 	3.74949e-274
0.5705 	1.31799e-276
0.5712 	1.20584e-276
0.5719 	9.90243e-277
0.5733 	5.43141e-277
0.574 	3.1959e-277
0.5747 	9.60391e-278
0.5754 	2.20872e-280
0.5761 	2.02306e-280
0.5768 	1.69245e-280
0.5775 	1.32231e-280
0.5782 	9.52168e-281
0.5789 	5.82025e-281
0.5796 	2.11882e-281
0.5803 	3.58758e-284
0.581 	3.28966e-284
0.5817 	2.80133e-284
0.5824 	2.20723e-284
0.5831 	1.61313e-284
0.5838 	1.01903e-284
0.5845 	4.24935e-285
0.5852 	5.65375e-288
0.5859 	5.18981e-288
0.5866 	4.49519e-288
0.5873 	3.56989e-288
0.588 	2.64459e-288
0.5887 	1.71929e-288
0.5894 	7.9399e-289
0.5901 	8.65287e-292
0.5908 	7.95114e-292
0.5915 	7.00011e-292
0.5922 	5.60035e-292
0.5929 	4.20058e-292
0.5936 	2.80082e-292
0.5943 	1.40105e-292
0.595 	1.28726e-295
0.5957 	1.18407e-295
0.5964 	1.05888e-295
0.5971 	8.53025e-296
0.5978 	6.47167e-296
0.5985 	4.41309e-296
0.5992 	2.35451e-296
0.5999 	2.95925e-297
0.6006 	1.7154e-299
0.6013 	1.55727e-299
0.602 	1.2627e-299
0.6027 	9.68131e-300
0.6034 	6.73561e-300
0.6041 	3.7899e-300
0.6048 	8.44197e-301
0.6055 	2.4196e-303
0.6062 	2.21391e-303
0.6069 	1.81808e-303
0.6076 	1.40762e-303
0.6083 	9.97168e-304
0.609 	5.86713e-304
0.6097 	1.76258e-304
0.6104 	3.32533e-307
0.6111 	3.04605e-307
0.6118 	2.5483e-307
0.6125 	1.99096e-307
0.6132 	1.43362e-307
0.6139 	8.7628e-308
0.6146 	3.18941e-308
0.6153 	4.45597e-311
0.616 	4.0862e-311
0.6167 	3.47972e-311
0.6174 	2.74172e-311
0.6181 	2.00373e-311
0.6188 	1.26573e-311
0.6195 	5.27735e-312
0.6202 	5.82314e-315
0.6216 	4.63041e-315
0.6223 	3.67711e-315
0.623 	2.72382e-315
0.6237 	1.77052e-315
0.6244 	8.17221e-316
0.6251 	1.06842e-319
0.6258 	9.81955e-320
0.6265 	8.64615e-320
0.6272 	6.91692e-320
0.6279 	5.18769e-320
0.6286 	3.45846e-320
0.6293 	1.72923e-320
0.63 	0
0.6307 	0
0.6314 	0
0.6321 	0
0.6328 	0
0.6335 	0
0.6342 	0
0.6349 	0
0.6356 	0
0.6363 	0
0.637 	0
0.6377 	0
0.6384 	0
0.6391 	0
0.6398 	0
0.6405 	0
0.6412 	0
0.6419 	0
0.6426 	0
0.6433 	0
0.644 	0
0.6447 	0
0.6454 	0
0.6461 	0
0.6468 	0
0.6475 	0
0.6482 	0
0.6489 	0
0.6496 	0
0.6503 	0
0.651 	0
0.6517 	0
0.6524 	0
0.6531 	0
0.6538 	0
0.6545 	0
0.6552 	0
0.6559 	0
0.6566 	0
0.6573 	0
0.658 	0
0.6587 	0
0.6594 	0
0.6601 	0
0.6608 	0
0.6615 	0
0.6629 	0
0.6636 	0
0.6643 	0
0.665 	0
0.6657 	0
0.6664 	0
0.6671 	0
0.6678 	0
0.6685 	0
0.6692 	0
0.6699 	0
0.6706 	0
0.6713 	0
0.672 	0
0.6727 	0
0.6734 	0
0.6741 	0
0.6748 	0
0.6755 	0
0.6762 	0
0.6769 	0
0.6776 	0
0.6783 	0
0.679 	0
0.6797 	0
0.6804 	0
0.6811 	0
0.6818 	0
0.6825 	0
0.6832 	0
0.6839 	0
0.6846 	0
0.6853 	0
0.686 	0
0.6867 	0
0.6874 	0
0.6881 	0
0.6888 	0
0.6895 	0
0.6902 	0
0.6909 	0
0.6916 	0
0.6923 	0
0.693 	0
0.6937 	0
0.6944 	0
0.6951 	0
0.6958 	0
0.6965 	0
0.6972 	0
0.6979 	0
0.6986 	0
0.6993 	0
0.7 	0
