0 	1
0.0007 	1
0.0014 	1
0.0021 	1
0.0028 	1
0.0035 	1
0.0042 	1
0.0049 	1
0.0056 	1
0.0063 	1
0.007 	1
0.0077 	1
0.0084 	1
0.0091 	1
0.0098 	1
0.0105 	1
0.0112 	1
0.0119 	1
0.0126 	1
0.0133 	1
0.014 	1
0.0147 	1
0.0154 	1
0.0161 	1
0.0168 	1
0.0175 	1
0.0182 	1
0.0189 	1
0.0196 	1
0.0203 	1
0.021 	1
0.0217 	1
0.0224 	1
0.0231 	1
0.0238 	1
0.0245 	1
0.0252 	1
0.0259 	1
0.0266 	1
0.0273 	1
0.028 	1
0.0287 	1
0.0294 	1
0.0301 	1
0.0308 	1
0.0315 	1
0.0322 	1
0.0329 	1
0.0336 	1
0.0343 	1
0.035 	1
0.0357 	1
0.0364 	1
0.0371 	1
0.0378 	1
0.0385 	1
0.0392 	1
0.0399 	1
0.0406 	1
0.0413 	1
0.042 	1
0.0427 	1
0.0434 	1
0.0441 	1
0.0448 	1
0.0455 	1
0.0462 	1
0.0469 	1
0.0476 	1
0.0483 	1
0.049 	1
0.0497 	1
0.0504 	1
0.0511 	1
0.0518 	1
0.0525 	1
0.0532 	1
0.0539 	1
0.0546 	1
0.0553 	1
0.056 	1
0.0567 	1
0.0574 	1
0.0581 	1
0.0588 	1
0.0595 	1
0.0602 	1
0.0609 	1
0.0616 	1
0.0623 	1
0.063 	1
0.0637 	1
0.0644 	1
0.0651 	1
0.0658 	1
0.0665 	1
0.0672 	1
0.0679 	1
0.0686 	1
0.0693 	1
0.07 	1
0.0707 	1
0.0714 	1
0.0721 	1
0.0728 	1
0.0735 	1
0.0742 	1
0.0749 	1
0.0756 	1
0.0763 	1
0.077 	1
0.0777 	1
0.0784 	1
0.0791 	1
0.0798 	1
0.0805 	1
0.0812 	1
0.0819 	1
0.0826 	1
0.0833 	1
0.084 	1
0.0847 	1
0.0854 	1
0.0861 	1
0.0868 	1
0.0875 	1
0.0882 	1
0.0889 	1
0.0896 	1
0.0903 	1
0.091 	1
0.0917 	1
0.0924 	1
0.0931 	1
0.0938 	1
0.0945 	1
0.0952 	1
0.0959 	1
0.0966 	1
0.0973 	1
0.098 	1
0.0987 	1
0.0994 	1
0.1001 	1
0.1008 	1
0.1015 	1
0.1022 	1
0.1029 	1
0.1036 	1
0.1043 	1
0.105 	1
0.1057 	1
0.1064 	1
0.1071 	1
0.1078 	1
0.1085 	1
0.1092 	1
0.1099 	1
0.1106 	1
0.1113 	1
0.112 	1
0.1127 	1
0.1134 	1
0.1141 	1
0.1148 	1
0.1155 	1
0.1162 	1
0.1169 	1
0.1176 	1
0.1183 	1
0.119 	1
0.1197 	1
0.1204 	1
0.1211 	1
0.1218 	1
0.1225 	1
0.1232 	1
0.1239 	1
0.1246 	1
0.1253 	1
0.126 	1
0.1267 	1
0.1274 	1
0.1281 	1
0.1288 	1
0.1295 	1
0.1302 	1
0.1309 	1
0.1316 	1
0.1323 	1
0.133 	1
0.1337 	1
0.1344 	1
0.1351 	1
0.1358 	1
0.1365 	1
0.1372 	1
0.1379 	1
0.1386 	1
0.1393 	1
0.14 	1
0.1407 	1
0.1414 	1
0.1421 	1
0.1428 	1
0.1435 	1
0.1442 	1
0.1449 	1
0.1456 	1
0.1463 	1
0.147 	1
0.1477 	1
0.1484 	1
0.1491 	1
0.1498 	1
0.1505 	1
0.1512 	1
0.1519 	1
0.1526 	1
0.1533 	1
0.154 	1
0.1547 	1
0.1554 	1
0.1561 	1
0.1568 	1
0.1575 	1
0.1582 	1
0.1589 	1
0.1596 	1
0.1603 	1
0.161 	1
0.1617 	1
0.1624 	1
0.1631 	1
0.1638 	1
0.1645 	1
0.1652 	1
0.1659 	1
0.1666 	1
0.1673 	1
0.168 	1
0.1687 	1
0.1694 	1
0.1701 	1
0.1708 	1
0.1715 	1
0.1722 	1
0.1729 	1
0.1736 	1
0.1743 	1
0.175 	1
0.1757 	1
0.1764 	1
0.1771 	1
0.1778 	1
0.1785 	1
0.1792 	1
0.1799 	1
0.1806 	1
0.1813 	1
0.182 	1
0.1827 	1
0.1834 	1
0.1841 	1
0.1848 	1
0.1855 	1
0.1862 	1
0.1869 	1
0.1876 	1
0.1883 	1
0.189 	1
0.1897 	1
0.1904 	1
0.1911 	1
0.1918 	1
0.1925 	1
0.1932 	1
0.1939 	1
0.1946 	1
0.1953 	1
0.196 	1
0.1967 	1
0.1974 	1
0.1981 	1
0.1988 	1
0.1995 	1
0.2002 	1
0.2009 	1
0.2016 	1
0.2023 	1
0.203 	1
0.2037 	1
0.2044 	1
0.2051 	1
0.2058 	1
0.2065 	1
0.2072 	1
0.2079 	1
0.2086 	1
0.2093 	1
0.21 	1
0.2107 	0.99997
0.2114 	0.999941
0.2121 	0.999911
0.2128 	0.999882
0.2135 	0.999852
0.2142 	0.999823
0.2149 	0.999793
0.2156 	0.998064
0.2163 	0.996051
0.217 	0.994038
0.2177 	0.992025
0.2184 	0.990013
0.2191 	0.988
0.2198 	0.985987
0.2205 	0.968017
0.2212 	0.943662
0.2219 	0.919307
0.2226 	0.894951
0.2233 	0.870596
0.224 	0.846241
0.2247 	0.821885
0.2254 	0.776021
0.2261 	0.714027
0.2268 	0.652033
0.2275 	0.590039
0.2282 	0.528044
0.2289 	0.46605
0.2296 	0.404056
0.2303 	0.349171
0.231 	0.303778
0.2317 	0.258385
0.2324 	0.212992
0.2331 	0.1676
0.2338 	0.122207
0.2345 	0.0768142
0.2352 	0.0426862
0.2359 	0.0367045
0.2366 	0.0307228
0.2373 	0.0247411
0.238 	0.0187594
0.2387 	0.0127777
0.2394 	0.006796
0.2401 	0.00163792
0.2408 	0.00141604
0.2415 	0.00119417
0.2422 	0.000972303
0.2429 	0.000750433
0.2436 	0.000528563
0.2443 	0.000306693
0.245 	8.48531e-05
0.2457 	7.35665e-05
0.2464 	6.2281e-05
0.2471 	5.09959e-05
0.2478 	3.97108e-05
0.2485 	2.84257e-05
0.2492 	1.71406e-05
0.2499 	5.85554e-06
0.2506 	3.7592e-06
0.2513 	3.19258e-06
0.252 	2.62601e-06
0.2527 	2.05944e-06
0.2534 	1.49287e-06
0.2541 	9.26298e-07
0.2548 	3.59726e-07
0.2555 	1.79013e-07
0.2562 	1.52535e-07
0.2569 	1.26062e-07
0.2576 	9.95892e-08
0.2583 	7.31165e-08
0.259 	4.66439e-08
0.2597 	2.01712e-08
0.2604 	8.15483e-09
0.2611 	6.9743e-09
0.2618 	5.79412e-09
0.2625 	4.61403e-09
0.2632 	3.43394e-09
0.2639 	2.25385e-09
0.2646 	1.07377e-09
0.2653 	3.77168e-10
0.266 	3.24837e-10
0.2667 	2.72528e-10
0.2674 	2.20231e-10
0.2681 	1.67934e-10
0.2688 	1.15637e-10
0.2695 	6.33401e-11
0.2702 	2.51088e-11
0.2709 	2.2016e-11
0.2716 	1.89248e-11
0.2723 	1.58352e-11
0.273 	1.27455e-11
0.2737 	9.65583e-12
0.2744 	6.56616e-12
0.2751 	3.85765e-12
0.2758 	3.43357e-12
0.2765 	3.00968e-12
0.2772 	2.58611e-12
0.2779 	2.16254e-12
0.2786 	1.73897e-12
0.2793 	1.31539e-12
0.28 	8.91872e-13
0.2807 	8.05895e-13
0.2814 	7.19936e-13
0.2821 	6.34022e-13
0.2828 	5.48108e-13
0.2835 	4.62194e-13
0.2842 	3.7628e-13
0.2849 	2.90366e-13
0.2856 	2.55849e-13
0.2863 	2.2989e-13
0.287 	2.0392e-13
0.2877 	1.77949e-13
0.2884 	1.51978e-13
0.2891 	1.26008e-13
0.2898 	1.00037e-13
0.2905 	8.57838e-14
0.2912 	7.62152e-14
0.2919 	6.66388e-14
0.2926 	5.7062e-14
0.2933 	4.74851e-14
0.294 	3.79082e-14
0.2947 	2.83313e-14
0.2954 	2.26647e-14
0.2961 	1.99298e-14
0.2968 	1.71933e-14
0.2975 	1.44563e-14
0.2982 	1.17194e-14
0.2989 	8.98251e-15
0.2996 	6.2456e-15
0.3003 	4.44867e-15
0.301 	3.90441e-15
0.3017 	3.35988e-15
0.3024 	2.8152e-15
0.3031 	2.27051e-15
0.3038 	1.72583e-15
0.3045 	1.18114e-15
0.3052 	7.65606e-16
0.3059 	6.72727e-16
0.3066 	5.79789e-16
0.3073 	4.86792e-16
0.308 	3.93795e-16
0.3087 	3.00798e-16
0.3094 	2.07801e-16
0.3101 	1.25886e-16
0.3108 	1.10383e-16
0.3115 	9.48701e-17
0.3122 	7.93402e-17
0.3129 	6.38103e-17
0.3136 	4.82804e-17
0.3143 	3.27505e-17
0.315 	1.72227e-17
0.3157 	1.50588e-17
0.3164 	1.28941e-17
0.3171 	1.07257e-17
0.3178 	8.55737e-18
0.3185 	6.38902e-18
0.3192 	4.22067e-18
0.3199 	2.05233e-18
0.3206 	1.55029e-18
0.3213 	1.32558e-18
0.322 	1.10031e-18
0.3227 	8.75032e-19
0.3234 	6.49755e-19
0.3241 	4.24478e-19
0.3248 	1.99202e-19
0.3255 	1.22171e-19
0.3262 	1.04391e-19
0.3269 	8.65539e-20
0.3276 	6.87122e-20
0.3283 	5.08705e-20
0.329 	3.30288e-20
0.3297 	1.5187e-20
0.3304 	6.96397e-21
0.3311 	5.9499e-21
0.3318 	4.9322e-21
0.3325 	3.91351e-21
0.3332 	2.89483e-21
0.3339 	1.87614e-21
0.3346 	8.57455e-22
0.3353 	2.59384e-22
0.336 	2.2173e-22
0.3367 	1.8393e-22
0.3374 	1.46049e-22
0.3381 	1.08167e-22
0.3388 	7.0286e-23
0.3395 	3.24047e-23
0.3402 	5.14197e-24
0.3409 	4.40205e-24
0.3416 	3.65902e-24
0.3423 	2.91287e-24
0.343 	2.16672e-24
0.3437 	1.42058e-24
0.3444 	6.74429e-25
0.3451 	3.43209e-26
0.3458 	2.94709e-26
0.3465 	2.45986e-26
0.3472 	1.96859e-26
0.3479 	1.47733e-26
0.3486 	9.86064e-27
0.3493 	4.94798e-27
0.35 	3.62673e-29
0.3507 	3.12642e-29
0.3514 	2.62405e-29
0.3521 	2.11387e-29
0.3528 	1.60368e-29
0.3535 	1.09349e-29
0.3542 	5.83308e-30
0.3549 	7.31217e-31
0.3556 	2.97212e-33
0.3563 	2.50919e-33
0.357 	2.03449e-33
0.3577 	1.5598e-33
0.3584 	1.08511e-33
0.3591 	6.10416e-34
0.3598 	1.35723e-34
0.3605 	1.70836e-37
0.3612 	1.44849e-37
0.3619 	1.18208e-37
0.3626 	9.15171e-38
0.3633 	6.48262e-38
0.364 	3.81352e-38
0.3647 	1.14443e-38
0.3654 	9.72777e-42
0.3661 	8.27916e-42
0.3668 	6.80004e-42
0.3675 	5.31259e-42
0.3682 	3.82514e-42
0.3689 	2.33769e-42
0.3696 	8.50242e-43
0.3703 	5.33693e-46
0.371 	4.55891e-46
0.3717 	3.76733e-46
0.3724 	2.96823e-46
0.3731 	2.16912e-46
0.3738 	1.37002e-46
0.3745 	5.70917e-47
0.3752 	2.7748e-50
0.3759 	2.37875e-50
0.3766 	1.9772e-50
0.3773 	1.57014e-50
0.378 	1.16308e-50
0.3787 	7.56023e-51
0.3794 	3.48964e-51
0.3801 	1.3616e-54
0.3808 	1.17126e-54
0.3815 	9.78976e-55
0.3822 	7.83185e-55
0.3829 	5.87395e-55
0.3836 	3.91604e-55
0.3843 	1.95814e-55
0.385 	6.32987e-59
0.3857 	5.46272e-59
0.3864 	4.59022e-59
0.3871 	3.69769e-59
0.3878 	2.80517e-59
0.3885 	1.91264e-59
0.3892 	1.02012e-59
0.3899 	1.27595e-60
0.3906 	2.43259e-63
0.3913 	2.05443e-63
0.392 	1.66576e-63
0.3927 	1.27709e-63
0.3934 	8.88422e-64
0.3941 	4.99753e-64
0.3948 	1.11083e-64
0.3955 	1.04265e-67
0.3962 	8.84462e-68
0.3969 	7.21817e-68
0.3976 	5.58829e-68
0.3983 	3.95841e-68
0.399 	2.32853e-68
0.3997 	6.98649e-69
0.4004 	4.33353e-72
0.4011 	3.69007e-72
0.4018 	3.03121e-72
0.4025 	2.36814e-72
0.4032 	1.70507e-72
0.4039 	1.04201e-72
0.4046 	3.78942e-73
0.4053 	1.75545e-76
0.406 	1.5002e-76
0.4067 	1.23996e-76
0.4074 	9.76943e-77
0.4081 	7.13925e-77
0.4088 	4.50906e-77
0.4095 	1.87887e-77
0.4102 	6.95201e-81
0.4109 	5.96168e-81
0.4116 	4.95631e-81
0.4123 	3.9359e-81
0.413 	2.9155e-81
0.4137 	1.89509e-81
0.4144 	8.74689e-82
0.4151 	2.69457e-85
0.4158 	2.31834e-85
0.4165 	1.93804e-85
0.4172 	1.55044e-85
0.4179 	1.16283e-85
0.4186 	7.75228e-86
0.4193 	3.87624e-86
0.42 	1.02211e-89
0.4207 	8.82157e-90
0.4214 	7.41317e-90
0.4221 	5.97173e-90
0.4228 	4.5303e-90
0.4235 	3.08886e-90
0.4242 	1.64742e-90
0.4249 	2.05979e-91
0.4256 	3.28231e-94
0.4263 	2.77201e-94
0.427 	2.24758e-94
0.4277 	1.72315e-94
0.4284 	1.19872e-94
0.4291 	6.74287e-95
0.4298 	1.49856e-95
0.4305 	1.19317e-98
0.4312 	1.01162e-98
0.4319 	8.25447e-99
0.4326 	6.38912e-99
0.4333 	4.52377e-99
0.434 	2.65842e-99
0.4347 	7.93077e-100
0.4354 	-5.17543e-102
0.4361 	-3.82253e-102
0.4368 	-3.58373e-102
0.4375 	-3.64877e-102
0.4382 	-3.7138e-102
0.4389 	-3.77884e-102
0.4396 	-3.84388e-102
0.4403 	-3.46623e-102
0.441 	-2.49787e-102
0.4417 	-2.15199e-102
0.4424 	-2.15195e-102
0.4431 	-2.15191e-102
0.4438 	-2.15187e-102
0.4445 	-2.15182e-102
0.4452 	-1.98894e-102
0.4459 	-1.41851e-102
0.4466 	-1.13328e-102
0.4473 	-1.13325e-102
0.448 	-1.13322e-102
0.4487 	-1.13319e-102
0.4494 	-1.13316e-102
0.4501 	-1.08804e-102
0.4508 	-7.7194e-103
0.4515 	-5.68724e-103
0.4522 	-5.68707e-103
0.4529 	-5.6869e-103
0.4536 	-5.68673e-103
0.4543 	-5.68655e-103
0.455 	-5.6871e-103
0.4557 	-4.0286e-103
0.4564 	-2.72575e-103
0.4571 	-2.72566e-103
0.4578 	-2.72557e-103
0.4585 	-2.72547e-103
0.4592 	-2.72538e-103
0.4599 	-2.72528e-103
0.4606 	-2.01709e-103
0.4613 	-1.24968e-103
0.462 	-1.24963e-103
0.4627 	-1.24958e-103
0.4634 	-1.24954e-103
0.4641 	-1.24949e-103
0.4648 	-1.24944e-103
0.4655 	-9.69232e-104
0.4662 	-5.76836e-104
0.4669 	-5.48786e-104
0.4676 	-5.48762e-104
0.4683 	-5.48738e-104
0.469 	-5.48714e-104
0.4697 	-5.4869e-104
0.4704 	-4.47091e-104
0.4711 	-2.6924e-104
0.4718 	-2.3112e-104
0.4725 	-2.31109e-104
0.4732 	-2.31098e-104
0.4739 	-2.31087e-104
0.4746 	-2.31076e-104
0.4753 	-1.98053e-104
0.476 	-1.20974e-104
0.4767 	-9.34429e-105
0.4774 	-9.34379e-105
0.4781 	-9.34329e-105
0.4788 	-9.34279e-105
0.4795 	-9.34229e-105
0.4802 	-8.42871e-105
0.4809 	-5.22987e-105
0.4816 	-3.63035e-105
0.4823 	-3.63013e-105
0.483 	-3.62992e-105
0.4837 	-3.6297e-105
0.4844 	-3.62949e-105
0.4851 	-3.44776e-105
0.4858 	-2.17487e-105
0.4865 	-1.35656e-105
0.4872 	-1.35647e-105
0.4879 	-1.35638e-105
0.4886 	-1.35629e-105
0.4893 	-1.35621e-105
0.49 	-1.3563e-105
0.4907 	-8.70008e-106
0.4914 	-4.87967e-106
0.4921 	-4.87932e-106
0.4928 	-4.87898e-106
0.4935 	-4.87863e-106
0.4942 	-4.87829e-106
0.4949 	-4.87794e-106
0.4956 	-3.34844e-106
0.4963 	-1.69106e-106
0.497 	-1.69093e-106
0.4977 	-1.6908e-106
0.4984 	-1.69067e-106
0.4991 	-1.69054e-106
0.4998 	-1.69041e-106
0.5005 	-1.24033e-106
0.5012 	-6.1007e-107
0.5019 	-5.65008e-107
0.5026 	-5.6496e-107
0.5033 	-5.64913e-107
0.504 	-5.64866e-107
0.5047 	-5.64818e-107
0.5054 	-4.42395e-107
0.5061 	-2.28102e-107
0.5068 	-1.82169e-107
0.5075 	-1.82152e-107
0.5082 	-1.82136e-107
0.5089 	-1.82119e-107
0.5096 	-1.82103e-107
0.5103 	-1.52016e-107
0.511 	-8.17977e-108
0.5117 	-5.67161e-108
0.5124 	-5.67106e-108
0.5131 	-5.6705e-108
0.5138 	-5.66995e-108
0.5145 	-5.6694e-108
0.5152 	-5.03544e-108
0.5159 	-2.8161e-108
0.5166 	-1.70635e-108
0.5173 	-1.70617e-108
0.518 	-1.70599e-108
0.5187 	-1.70581e-108
0.5194 	-1.70563e-108
0.5201 	-1.60891e-108
0.5208 	-9.31763e-109
0.5215 	-4.96437e-109
0.5222 	-4.96381e-109
0.5229 	-4.96326e-109
0.5236 	-4.9627e-109
0.5243 	-4.96214e-109
0.525 	-4.96225e-109
0.5257 	-2.96601e-109
0.5264 	-1.39765e-109
0.5271 	-1.39748e-109
0.5278 	-1.39731e-109
0.5285 	-1.39714e-109
0.5292 	-1.39698e-109
0.5299 	-1.39681e-109
0.5306 	-9.09296e-110
0.5313 	-3.81032e-110
0.532 	-3.80983e-110
0.5327 	-3.80934e-110
0.5334 	-3.80886e-110
0.5341 	-3.80837e-110
0.5348 	-3.80788e-110
0.5355 	-2.6875e-110
0.5362 	-1.11862e-110
0.5369 	-1.00644e-110
0.5376 	-1.0063e-110
0.5383 	-1.00616e-110
0.539 	-1.00602e-110
0.5397 	-1.00589e-110
0.5404 	-7.66535e-111
0.5411 	-3.47593e-111
0.5418 	-2.57791e-111
0.5425 	-2.57754e-111
0.5432 	-2.57716e-111
0.5439 	-2.57679e-111
0.5446 	-2.57642e-111
0.5453 	-2.11189e-111
0.546 	-1.02787e-111
0.5467 	-6.40657e-112
0.5474 	-6.40559e-112
0.5481 	-6.40461e-112
0.5488 	-6.40364e-112
0.5495 	-6.40266e-112
0.5502 	-5.62554e-112
0.5509 	-2.90574e-112
0.5516 	-1.54571e-112
0.5523 	-1.54546e-112
0.553 	-1.54521e-112
0.5537 	-1.54496e-112
0.5544 	-1.54472e-112
0.5551 	-1.45007e-112
0.5558 	-7.8795e-113
0.5565 	-3.62276e-113
0.5572 	-3.62215e-113
0.5579 	-3.62153e-113
0.5586 	-3.62092e-113
0.5593 	-3.6203e-113
0.56 	-3.62018e-113
0.5607 	-2.05502e-113
0.5614 	-8.25308e-114
0.5621 	-8.25161e-114
0.5628 	-8.25013e-114
0.5635 	-8.24866e-114
0.5642 	-8.24718e-114
0.5649 	-8.2457e-114
0.5656 	-5.16584e-114
0.5663 	-1.82856e-114
0.567 	-1.82821e-114
0.5677 	-1.82787e-114
0.5684 	-1.82753e-114
0.5691 	-1.82718e-114
0.5698 	-1.82684e-114
0.5705 	-1.25386e-114
0.5712 	-4.51543e-115
0.5719 	-3.94163e-115
0.5726 	-3.94085e-115
0.5733 	-3.94008e-115
0.574 	-3.9393e-115
0.5747 	-3.93853e-115
0.5754 	-2.94308e-115
0.5761 	-1.20088e-115
0.5768 	-8.27422e-116
0.5775 	-8.27251e-116
0.5782 	-8.27081e-116
0.5789 	-8.26911e-116
0.5796 	-8.2674e-116
0.5803 	-6.68933e-116
0.581 	-3.00731e-116
0.5817 	-1.69206e-116
0.5824 	-1.6917e-116
0.5831 	-1.69133e-116
0.5838 	-1.69097e-116
0.5845 	-1.69061e-116
0.5852 	-1.47402e-116
0.5859 	-7.16211e-117
0.5866 	-3.3727e-117
0.5873 	-3.37194e-117
0.588 	-3.37118e-117
0.5887 	-3.37043e-117
0.5894 	-3.36967e-117
0.5901 	-3.1523e-117
0.5908 	-1.6326e-117
0.5915 	-6.55603e-118
0.5922 	-6.55449e-118
0.5929 	-6.55295e-118
0.5936 	-6.55142e-118
0.5943 	-6.54988e-118
0.595 	-6.54926e-118
0.5957 	-3.57798e-118
0.5964 	-1.24347e-118
0.5971 	-1.24317e-118
0.5978 	-1.24287e-118
0.5985 	-1.24256e-118
0.5992 	-1.24226e-118
0.5999 	-1.24196e-118
0.6006 	-7.56391e-119
0.6013 	-2.3025e-119
0.602 	-2.30192e-119
0.6027 	-2.30133e-119
0.6034 	-2.30075e-119
0.6041 	-2.30016e-119
0.6048 	-2.29958e-119
0.6055 	-1.54638e-119
0.6062 	-4.91768e-120
0.6069 	-4.16336e-120
0.6076 	-4.16227e-120
0.6083 	-4.16117e-120
0.609 	-4.16007e-120
0.6097 	-4.15898e-120
0.6104 	-3.06365e-120
0.6111 	-1.14682e-120
0.6118 	-7.35909e-121
0.6125 	-7.35708e-121
0.6132 	-7.35507e-121
0.6139 	-7.35306e-121
0.6146 	-7.35105e-121
0.6153 	-5.89189e-121
0.616 	-2.48787e-121
0.6167 	-1.27192e-121
0.6174 	-1.27156e-121
0.6181 	-1.2712e-121
0.6188 	-1.27084e-121
0.6195 	-1.27048e-121
0.6202 	-1.10153e-121
0.6209 	-5.1058e-122
0.6216 	-2.15073e-122
0.6223 	-2.1501e-122
0.623 	-2.14947e-122
0.6237 	-2.14884e-122
0.6244 	-2.14821e-122
0.6251 	-2.00457e-122
0.6258 	-1.00111e-122
0.6265 	-3.55987e-123
0.6272 	-3.55879e-123
0.6279 	-3.55771e-123
0.6286 	-3.55663e-123
0.6293 	-3.55556e-123
0.63 	-3.55498e-123
0.6307 	-1.88734e-123
0.6314 	-5.77076e-124
0.6321 	-5.76895e-124
0.6328 	-5.76715e-124
0.6335 	-5.76534e-124
0.6342 	-5.76354e-124
0.6349 	-5.76174e-124
0.6356 	-3.43632e-124
0.6363 	-9.16636e-125
0.637 	-9.1634e-125
0.6377 	-9.16044e-125
0.6384 	-9.15749e-125
0.6391 	-9.15453e-125
0.6398 	-9.15157e-125
0.6405 	-6.06201e-125
0.6412 	-1.73627e-125
0.6419 	-1.42685e-125
0.6426 	-1.42637e-125
0.6433 	-1.4259e-125
0.644 	-1.42542e-125
0.6447 	-1.42495e-125
0.6454 	-1.03869e-125
0.6461 	-3.62791e-126
0.6468 	-2.17896e-126
0.6475 	-2.17821e-126
0.6482 	-2.17745e-126
0.6489 	-2.17669e-126
0.6496 	-2.17594e-126
0.6503 	-1.73195e-126
0.651 	-6.96381e-127
0.6517 	-3.26458e-127
0.6524 	-3.26339e-127
0.6531 	-3.26221e-127
0.6538 	-3.26102e-127
0.6545 	-3.25983e-127
0.6552 	-2.81469e-127
0.6559 	-1.25829e-127
0.6566 	-4.79995e-128
0.6573 	-4.79812e-128
0.658 	-4.79628e-128
0.6587 	-4.79444e-128
0.6594 	-4.7926e-128
0.6601 	-4.46371e-128
0.6608 	-2.16839e-128
0.6615 	-6.92736e-129
0.6622 	-6.92457e-129
0.6629 	-6.92178e-129
0.6636 	-6.91898e-129
0.6643 	-6.91619e-129
0.665 	-6.91439e-129
0.6657 	-3.59188e-129
0.6664 	-9.81352e-130
0.6671 	-9.80936e-130
0.6678 	-9.8052e-130
0.6685 	-9.80105e-130
0.6692 	-9.79689e-130
0.6699 	-9.79273e-130
0.6706 	-5.74708e-130
0.6713 	-1.3636e-130
0.672 	-1.36299e-130
0.6727 	-1.36239e-130
0.6734 	-1.36178e-130
0.6741 	-1.36117e-130
0.6748 	-1.36056e-130
0.6755 	-8.90385e-131
0.6762 	-2.32141e-131
0.6769 	-1.85043e-131
0.6776 	-1.84957e-131
0.6783 	-1.8487e-131
0.679 	-1.84783e-131
0.6797 	-1.84697e-131
0.6804 	-1.33326e-131
0.6811 	-4.34512e-132
0.6818 	-2.4183e-132
0.6825 	-2.41709e-132
0.6832 	-2.41589e-132
0.6839 	-2.41469e-132
0.6846 	-2.41348e-132
0.6853 	-1.90371e-132
0.686 	-7.15128e-133
0.6867 	-2.90532e-133
0.6874 	-2.90372e-133
0.6881 	-2.90212e-133
0.6888 	-2.90051e-133
0.6895 	-2.89891e-133
0.6902 	-2.48001e-133
0.6909 	-1.01656e-133
0.6916 	-2.84731e-134
0.6923 	-2.84535e-134
0.693 	-2.84339e-134
0.6937 	-2.84143e-134
0.6944 	-2.83947e-134
0.6951 	-2.61122e-134
0.6958 	-1.02246e-134
0.6965 	-1.04189e-137
0.6972 	-8.47929e-138
0.6979 	-6.53962e-138
0.6986 	-4.59996e-138
0.6993 	-2.6603e-138
0.7 	-7.21234e-139
