0 	1
0.0007 	1
0.0014 	1
0.0021 	1
0.0028 	1
0.0035 	1
0.0042 	1
0.0049 	1
0.0056 	1
0.0063 	1
0.007 	1
0.0077 	1
0.0084 	1
0.0091 	1
0.0098 	1
0.0105 	1
0.0112 	1
0.0119 	1
0.0126 	1
0.0133 	1
0.014 	1
0.0147 	1
0.0154 	1
0.0161 	1
0.0168 	1
0.0175 	1
0.0182 	1
0.0189 	1
0.0196 	1
0.0203 	1
0.021 	1
0.0217 	1
0.0224 	1
0.0231 	1
0.0238 	1
0.0245 	1
0.0252 	1
0.0259 	1
0.0266 	1
0.0273 	1
0.028 	1
0.0287 	1
0.0294 	1
0.0301 	1
0.0308 	1
0.0315 	1
0.0322 	1
0.0329 	1
0.0336 	1
0.0343 	1
0.035 	1
0.0357 	1
0.0364 	1
0.0371 	1
0.0378 	1
0.0385 	1
0.0392 	1
0.0399 	1
0.0406 	1
0.0413 	1
0.042 	1
0.0427 	1
0.0434 	1
0.0441 	1
0.0448 	1
0.0455 	1
0.0462 	1
0.0469 	1
0.0476 	1
0.0483 	1
0.049 	1
0.0497 	1
0.0504 	1
0.0511 	1
0.0518 	1
0.0525 	1
0.0532 	1
0.0539 	1
0.0546 	1
0.0553 	1
0.056 	1
0.0567 	1
0.0574 	1
0.0581 	1
0.0588 	1
0.0595 	1
0.0602 	1
0.0609 	1
0.0616 	1
0.0623 	1
0.063 	1
0.0637 	1
0.0644 	1
0.0651 	1
0.0658 	1
0.0665 	1
0.0672 	1
0.0679 	1
0.0686 	1
0.0693 	1
0.07 	1
0.0707 	1
0.0714 	1
0.0721 	1
0.0728 	1
0.0735 	1
0.0742 	1
0.0749 	1
0.0756 	1
0.0763 	1
0.077 	1
0.0777 	1
0.0784 	1
0.0791 	1
0.0798 	1
0.0805 	1
0.0812 	1
0.0819 	1
0.0826 	1
0.0833 	1
0.084 	1
0.0847 	1
0.0854 	1
0.0861 	1
0.0868 	1
0.0875 	1
0.0882 	1
0.0889 	1
0.0896 	1
0.0903 	1
0.091 	1
0.0917 	1
0.0924 	1
0.0931 	1
0.0938 	1
0.0945 	1
0.0952 	1
0.0959 	1
0.0966 	1
0.0973 	1
0.098 	1
0.0987 	1
0.0994 	1
0.1001 	1
0.1008 	1
0.1015 	1
0.1022 	1
0.1029 	1
0.1036 	1
0.1043 	1
0.105 	1
0.1057 	1
0.1064 	1
0.1071 	1
0.1078 	1
0.1085 	1
0.1092 	1
0.1099 	1
0.1106 	1
0.1113 	1
0.112 	1
0.1127 	1
0.1134 	1
0.1141 	1
0.1148 	1
0.1155 	1
0.1162 	1
0.1169 	1
0.1176 	1
0.1183 	1
0.119 	1
0.1197 	1
0.1204 	1
0.1211 	1
0.1218 	1
0.1225 	1
0.1232 	1
0.1239 	1
0.1246 	1
0.1253 	1
0.126 	1
0.1267 	1
0.1274 	1
0.1281 	1
0.1288 	1
0.1295 	1
0.1302 	1
0.1309 	1
0.1316 	1
0.1323 	1
0.133 	1
0.1337 	1
0.1344 	1
0.1351 	1
0.1358 	1
0.1365 	1
0.1372 	1
0.1379 	1
0.1386 	1
0.1393 	1
0.14 	1
0.1407 	1
0.1414 	1
0.1421 	1
0.1428 	1
0.1435 	1
0.1442 	1
0.1449 	1
0.1456 	1
0.1463 	1
0.147 	1
0.1477 	1
0.1484 	1
0.1491 	1
0.1498 	1
0.1505 	1
0.1512 	1
0.1519 	1
0.1526 	1
0.1533 	1
0.154 	1
0.1547 	1
0.1554 	1
0.1561 	1
0.1568 	1
0.1575 	1
0.1582 	1
0.1589 	1
0.1596 	1
0.1603 	1
0.161 	1
0.1617 	1
0.1624 	1
0.1631 	1
0.1638 	1
0.1645 	1
0.1652 	1
0.1659 	1
0.1666 	1
0.1673 	1
0.168 	1
0.1687 	1
0.1694 	1
0.1701 	1
0.1708 	1
0.1715 	1
0.1722 	1
0.1729 	1
0.1736 	1
0.1743 	1
0.175 	1
0.1757 	1
0.1764 	1
0.1771 	1
0.1778 	1
0.1785 	1
0.1792 	1
0.1799 	1
0.1806 	1
0.1813 	1
0.182 	1
0.1827 	1
0.1834 	1
0.1841 	1
0.1848 	1
0.1855 	1
0.1862 	1
0.1869 	1
0.1876 	1
0.1883 	1
0.189 	1
0.1897 	1
0.1904 	1
0.1911 	1
0.1918 	1
0.1925 	1
0.1932 	1
0.1939 	1
0.1946 	1
0.1953 	1
0.196 	1
0.1967 	1
0.1974 	1
0.1981 	1
0.1988 	1
0.1995 	1
0.2002 	1
0.2009 	1
0.2016 	1
0.2023 	1
0.203 	1
0.2037 	1
0.2044 	1
0.2051 	1
0.2058 	1
0.2065 	1
0.2072 	1
0.2079 	1
0.2086 	1
0.2093 	1
0.21 	1
0.2107 	1
0.2114 	0.999999
0.2121 	0.999999
0.2128 	0.999998
0.2135 	0.999997
0.2142 	0.999996
0.2149 	0.999993
0.2156 	0.999991
0.2163 	0.999849
0.217 	0.99965
0.2177 	0.999452
0.2184 	0.999254
0.2191 	0.999056
0.2198 	0.998489
0.2205 	0.997967
0.2212 	0.993928
0.2219 	0.98725
0.2226 	0.980571
0.2233 	0.973892
0.224 	0.967214
0.2247 	0.953456
0.2254 	0.937462
0.2261 	0.910262
0.2268 	0.867708
0.2275 	0.82515
0.2282 	0.782592
0.2289 	0.740034
0.2296 	0.677677
0.2303 	0.600159
0.231 	0.527182
0.2317 	0.465457
0.2324 	0.403733
0.2331 	0.34201
0.2338 	0.280286
0.2345 	0.226552
0.2352 	0.183239
0.2359 	0.141347
0.2366 	0.114156
0.2373 	0.0869729
0.238 	0.0597903
0.2387 	0.0326076
0.2394 	0.0125202
0.2401 	0.0106034
0.2408 	0.00825168
0.2415 	0.00665847
0.2422 	0.00506651
0.2429 	0.00347456
0.2436 	0.0018826
0.2443 	0.000497612
0.245 	0.000422215
0.2457 	0.000330972
0.2464 	0.00026637
0.2471 	0.000206016
0.2478 	0.000145663
0.2485 	8.53093e-05
0.2492 	2.49558e-05
0.2499 	2.09043e-05
0.2506 	1.65933e-05
0.2513 	1.32502e-05
0.252 	1.03254e-05
0.2527 	7.40067e-06
0.2534 	4.47591e-06
0.2541 	1.55115e-06
0.2548 	9.71349e-07
0.2555 	7.81143e-07
0.2562 	6.19448e-07
0.2569 	4.86159e-07
0.2576 	3.52878e-07
0.2583 	2.19596e-07
0.259 	8.63144e-08
0.2597 	4.22506e-08
0.2604 	3.44321e-08
0.2611 	2.71471e-08
0.2618 	2.14577e-08
0.2625 	1.57691e-08
0.2632 	1.00805e-08
0.2639 	4.3919e-09
0.2646 	1.74842e-09
0.2653 	1.44579e-09
0.266 	1.13642e-09
0.2667 	9.06099e-10
0.2674 	6.75822e-10
0.2681 	4.45545e-10
0.2688 	2.15268e-10
0.2695 	7.66324e-11
0.2702 	6.44353e-11
0.2709 	5.09532e-11
0.2716 	4.13196e-11
0.2723 	3.16902e-11
0.273 	2.20608e-11
0.2737 	1.24314e-11
0.2744 	5.21567e-12
0.2751 	4.34292e-12
0.2758 	3.37587e-12
0.2765 	2.7514e-12
0.2772 	2.12769e-12
0.2779 	1.50398e-12
0.2786 	8.80262e-13
0.2793 	3.30985e-13
0.28 	2.73132e-13
0.2807 	2.08511e-13
0.2814 	1.65342e-13
0.2821 	1.25525e-13
0.2828 	8.57086e-14
0.2835 	4.58919e-14
0.2842 	6.0753e-15
0.2849 	4.6426e-15
0.2856 	3.57112e-15
0.2863 	2.78585e-15
0.287 	2.11912e-15
0.2877 	1.4524e-15
0.2884 	7.8567e-16
0.2891 	1.18942e-16
0.2898 	1.29705e-17
0.2905 	1.00991e-17
0.2912 	7.79372e-18
0.2919 	5.98128e-18
0.2926 	4.17028e-18
0.2933 	2.35929e-18
0.294 	5.48298e-19
0.2947 	5.6367e-21
0.2954 	4.4398e-21
0.2961 	3.39456e-21
0.2968 	2.62932e-21
0.2975 	1.86648e-21
0.2982 	1.10365e-21
0.2989 	3.40816e-22
0.2996 	2.73169e-24
0.3003 	2.17966e-24
0.301 	1.65481e-24
0.3017 	1.29257e-24
0.3024 	9.32252e-25
0.3031 	5.71931e-25
0.3038 	2.1161e-25
0.3045 	2.89616e-28
0.3052 	2.33838e-28
0.3059 	1.76405e-28
0.3066 	1.38897e-28
0.3073 	1.01664e-28
0.308 	6.44312e-29
0.3087 	2.71983e-29
0.3094 	1.66374e-32
0.3101 	1.35809e-32
0.3108 	1.01889e-32
0.3115 	8.08528e-33
0.3122 	5.99828e-33
0.3129 	3.91128e-33
0.3136 	1.82428e-33
0.3143 	9.91815e-37
0.315 	8.1722e-37
0.3157 	6.1924e-37
0.3164 	4.87461e-37
0.3171 	3.66133e-37
0.3178 	2.44805e-37
0.3185 	1.23477e-37
0.3192 	2.1489e-39
0.3199 	4.73706e-41
0.3206 	3.64186e-41
0.3213 	2.84093e-41
0.322 	2.15823e-41
0.3227 	1.47553e-41
0.3234 	7.92825e-42
0.3241 	1.10124e-42
0.3248 	2.624e-45
0.3255 	2.04326e-45
0.3262 	1.58069e-45
0.3269 	1.21346e-45
0.3276 	8.46293e-46
0.3283 	4.79122e-46
0.329 	1.11952e-46
0.3297 	1.39166e-49
0.3304 	1.09566e-49
0.3311 	8.40823e-50
0.3318 	6.51891e-50
0.3325 	4.62856e-50
0.3332 	2.7382e-50
0.3339 	8.47845e-51
0.3346 	7.12639e-54
0.3353 	5.66293e-54
0.336 	4.31055e-54
0.3367 	3.37367e-54
0.3374 	2.43449e-54
0.3381 	1.4953e-54
0.3388 	5.56114e-55
0.3395 	3.54634e-58
0.3402 	2.84045e-58
0.3409 	2.14431e-58
0.3416 	1.69346e-58
0.3423 	1.24014e-58
0.343 	7.86832e-59
0.3437 	3.3352e-59
0.3444 	1.72439e-62
0.3451 	1.39044e-62
0.3458 	1.0408e-62
0.3465 	8.29042e-63
0.3472 	6.15336e-63
0.3479 	4.0163e-63
0.3486 	1.87924e-63
0.3493 	8.20946e-67
0.35 	6.65718e-67
0.3507 	5.02037e-67
0.3514 	3.96672e-67
0.3521 	2.9807e-67
0.3528 	1.99469e-67
0.3535 	1.00867e-67
0.3542 	2.2657e-69
0.3549 	3.11543e-71
0.3556 	2.37501e-71
0.3563 	1.85633e-71
0.357 	1.41081e-71
0.3577 	9.65279e-72
0.3584 	5.19752e-72
0.3591 	7.42251e-73
0.3598 	1.42912e-75
0.3605 	1.09969e-75
0.3612 	8.49984e-76
0.3619 	6.52999e-76
0.3626 	4.55732e-76
0.3633 	2.58464e-76
0.364 	6.11972e-77
0.3647 	6.43868e-80
0.3654 	4.99472e-80
0.3661 	3.81607e-80
0.3668 	2.96223e-80
0.3675 	2.10457e-80
0.3682 	1.24691e-80
0.3689 	3.89249e-81
0.3696 	2.85622e-84
0.3703 	2.23139e-84
0.371 	1.68495e-84
0.3717 	1.32062e-84
0.3724 	9.53523e-85
0.3731 	5.86427e-85
0.3738 	2.19331e-85
0.3745 	1.25095e-88
0.3752 	9.83411e-89
0.3759 	7.33827e-89
0.3766 	5.80335e-89
0.3773 	4.25211e-89
0.378 	2.70087e-89
0.3787 	1.14963e-89
0.3794 	5.4189e-93
0.3801 	4.28372e-93
0.3808 	3.15833e-93
0.3815 	2.51865e-93
0.3822 	1.8703e-93
0.3829 	1.22196e-93
0.3836 	5.73614e-94
0.3843 	2.32394e-97
0.385 	1.84627e-97
0.3857 	1.36941e-97
0.3864 	1.08074e-97
0.3871 	8.12455e-98
0.3878 	5.44173e-98
0.3885 	2.75891e-98
0.3892 	7.60929e-100
0.3899 	7.87408e-102
0.3906 	5.89463e-102
0.3913 	4.58428e-102
0.392 	3.48546e-102
0.3927 	2.38663e-102
0.3934 	1.28781e-102
0.3941 	1.88987e-103
0.3948 	3.32145e-106
0.3955 	2.50719e-106
0.3962 	1.92073e-106
0.3969 	1.47615e-106
0.3976 	1.03094e-106
0.3983 	5.85726e-107
0.399 	1.40516e-107
0.3997 	1.38467e-110
0.4004 	1.05308e-110
0.4011 	7.94385e-111
0.4018 	6.16809e-111
0.4025 	4.38501e-111
0.4032 	2.60194e-111
0.4039 	8.18864e-112
0.4046 	5.70095e-115
0.4053 	4.36549e-115
0.406 	3.24215e-115
0.4067 	2.54148e-115
0.4074 	1.83607e-115
0.4081 	1.13067e-115
0.4088 	4.25265e-116
0.4095 	2.31658e-119
0.4102 	1.78521e-119
0.4109 	1.30498e-119
0.4116 	1.03205e-119
0.4123 	7.56578e-120
0.413 	4.81107e-120
0.4137 	2.05636e-120
0.4144 	9.28521e-124
0.4151 	7.19846e-124
0.4158 	5.17746e-124
0.4165 	4.12856e-124
0.4172 	3.06726e-124
0.4179 	2.00597e-124
0.4186 	9.4467e-125
0.4193 	3.66901e-128
0.42 	2.86123e-128
0.4207 	2.06766e-128
0.4214 	1.62638e-128
0.4221 	1.22318e-128
0.4228 	8.19989e-129
0.4235 	4.16795e-129
0.4242 	1.35999e-130
0.4249 	1.12123e-132
0.4256 	8.18012e-133
0.4263 	6.30602e-133
0.427 	4.79645e-133
0.4277 	3.28687e-133
0.4284 	1.7773e-133
0.4291 	2.6772e-134
0.4298 	4.32729e-137
0.4305 	3.18573e-137
0.4312 	2.40566e-137
0.4319 	1.84944e-137
0.4326 	1.29254e-137
0.4333 	7.35641e-138
0.434 	1.78744e-138
0.4347 	1.64329e-141
0.4354 	1.22044e-141
0.4361 	9.02153e-142
0.4368 	7.00643e-142
0.4375 	4.98412e-142
0.4382 	2.96182e-142
0.4389 	9.39515e-143
0.4396 	6.13739e-146
0.4403 	4.59751e-146
0.441 	3.32803e-146
0.4417 	2.61026e-146
0.4424 	1.88746e-146
0.4431 	1.16467e-146
0.4438 	4.41874e-147
0.4445 	1.86859e-149
0.4452 	8.82758e-150
0.4459 	1.64237e-149
0.4466 	1.90354e-149
0.4473 	1.62632e-149
0.448 	1.3491e-149
0.4487 	1.07187e-149
0.4494 	8.02869e-150
0.4501 	5.98885e-150
0.4508 	6.36502e-150
0.4515 	6.43189e-150
0.4522 	5.68547e-150
0.4529 	4.93905e-150
0.4536 	4.19262e-150
0.4543 	3.46424e-150
0.455 	2.88972e-150
0.4557 	2.60193e-150
0.4564 	2.39631e-150
0.4571 	2.10021e-150
0.4578 	1.8041e-150
0.4585 	1.508e-150
0.4592 	1.2119e-150
0.4599 	1.03987e-150
0.4606 	8.95713e-151
0.4613 	7.93469e-151
0.462 	6.91915e-151
0.4627 	5.90361e-151
0.4634 	4.88807e-151
0.4641 	3.87253e-151
0.4648 	3.27478e-151
0.4655 	2.78433e-151
0.4662 	2.41067e-151
0.4669 	2.09617e-151
0.4676 	1.78077e-151
0.4683 	1.46538e-151
0.469 	1.14999e-151
0.4697 	9.48545e-152
0.4704 	8.02124e-152
0.4711 	6.8257e-152
0.4718 	5.92504e-152
0.4725 	5.02168e-152
0.4732 	4.11832e-152
0.4739 	3.21497e-152
0.4746 	2.57808e-152
0.4753 	2.17396e-152
0.476 	1.82062e-152
0.4767 	1.57911e-152
0.4774 	1.33699e-152
0.4781 	1.09487e-152
0.4788 	8.52749e-153
0.4795 	6.64098e-153
0.4802 	5.59263e-153
0.4809 	4.60705e-153
0.4816 	3.99571e-153
0.4823 	3.38266e-153
0.483 	2.76961e-153
0.4837 	2.15656e-153
0.4844 	1.63049e-153
0.4851 	1.37323e-153
0.4858 	1.11145e-153
0.4865 	9.6445e-154
0.4872 	8.16918e-154
0.4879 	6.69387e-154
0.4886 	5.21855e-154
0.4893 	3.83066e-154
0.49 	3.23155e-154
0.4907 	2.59595e-154
0.4914 	2.22886e-154
0.4921 	1.88991e-154
0.4928 	1.55095e-154
0.4935 	1.212e-154
0.4942 	8.7305e-155
0.4949 	7.29851e-155
0.4956 	5.86185e-155
0.4963 	4.94825e-155
0.497 	4.20194e-155
0.4977 	3.45564e-155
0.4984 	2.70933e-155
0.4991 	1.96303e-155
0.4998 	1.58875e-155
0.5005 	1.27802e-155
0.5012 	1.05864e-155
0.5019 	9.00677e-156
0.5026 	7.42634e-156
0.5033 	5.8459e-156
0.504 	4.26547e-156
0.5047 	3.34324e-156
0.5054 	2.69903e-156
0.5061 	2.18947e-156
0.5068 	1.86698e-156
0.5075 	1.54396e-156
0.5082 	1.22095e-156
0.5089 	8.97932e-157
0.5096 	6.82072e-157
0.5103 	5.53904e-157
0.511 	4.39148e-157
0.5117 	3.75401e-157
0.5124 	3.11467e-157
0.5131 	2.47534e-157
0.5138 	1.83601e-157
0.5145 	1.35296e-157
0.5152 	1.10814e-157
0.5159 	8.56879e-158
0.5166 	7.34461e-158
0.5173 	6.11511e-158
0.518 	4.8856e-158
0.5187 	3.6561e-158
0.5194 	2.6168e-158
0.5201 	2.16801e-158
0.5208 	1.63163e-158
0.5215 	1.40249e-158
0.5222 	1.172e-158
0.5229 	9.41503e-159
0.5236 	7.11011e-159
0.5243 	4.94904e-159
0.525 	4.16116e-159
0.5257 	3.10212e-159
0.5264 	2.6221e-159
0.5271 	2.19949e-159
0.5278 	1.77689e-159
0.5285 	1.35429e-159
0.5292 	9.31681e-160
0.5299 	7.77592e-160
0.5306 	5.86332e-160
0.5313 	4.81529e-160
0.532 	4.05494e-160
0.5327 	3.2946e-160
0.5334 	2.53426e-160
0.5341 	1.77392e-160
0.5348 	1.43021e-160
0.5355 	1.095e-160
0.5362 	8.71423e-161
0.5369 	7.36821e-161
0.5376 	6.02119e-161
0.5383 	4.67416e-161
0.539 	3.32714e-161
0.5397 	2.59727e-161
0.5404 	2.02753e-161
0.5411 	1.55953e-161
0.5418 	1.32425e-161
0.5425 	1.08843e-161
0.5432 	8.52614e-162
0.5439 	6.16798e-162
0.5446 	4.67224e-162
0.5453 	3.73568e-162
0.546 	2.77051e-162
0.5467 	2.36265e-162
0.5474 	1.95319e-162
0.5481 	1.54374e-162
0.5488 	1.13429e-162
0.5495 	8.35482e-163
0.5502 	6.87507e-163
0.5509 	4.90501e-163
0.5516 	4.20106e-163
0.5523 	3.4932e-163
0.553 	2.78534e-163
0.5537 	2.07748e-163
0.5544 	1.49076e-163
0.5551 	1.26907e-163
0.5558 	8.69155e-164
0.5565 	7.4767e-164
0.5572 	6.25313e-164
0.5579 	5.02956e-164
0.5586 	3.80599e-164
0.5593 	2.66524e-164
0.56 	2.36005e-164
0.5607 	1.59827e-164
0.5614 	1.33802e-164
0.5621 	1.12559e-164
0.5628 	9.13156e-165
0.5635 	7.00722e-165
0.5642 	4.88289e-165
0.5649 	4.31004e-165
0.5656 	3.03057e-165
0.5663 	2.41971e-165
0.567 	2.04746e-165
0.5677 	1.6752e-165
0.5684 	1.30294e-165
0.5691 	9.30687e-166
0.5698 	7.96312e-166
0.5705 	5.84847e-166
0.5712 	4.44422e-166
0.5719 	3.78295e-166
0.5726 	3.12119e-166
0.5733 	2.45943e-166
0.574 	1.79768e-166
0.5747 	1.49546e-166
0.5754 	1.15413e-166
0.5761 	8.33354e-167
0.5768 	7.13642e-167
0.5775 	5.93676e-167
0.5782 	4.7371e-167
0.5789 	3.53744e-167
0.5796 	2.86784e-167
0.5803 	2.33945e-167
0.581 	1.60364e-167
0.5817 	1.38145e-167
0.5824 	1.15854e-167
0.5831 	9.3562e-168
0.5838 	7.12704e-168
0.5845 	5.6401e-168
0.5852 	4.89043e-168
0.5859 	3.18148e-168
0.5866 	2.75668e-168
0.5873 	2.33009e-168
0.588 	1.90351e-168
0.5887 	1.47693e-168
0.5894 	1.1419e-168
0.5901 	1.05788e-168
0.5908 	6.53372e-169
0.5915 	5.69352e-169
0.5922 	4.84926e-169
0.5929 	4.00499e-169
0.5936 	3.16073e-169
0.5943 	2.38786e-169
0.595 	2.37437e-169
0.5957 	1.45751e-169
0.5964 	1.22111e-169
0.5971 	1.04768e-169
0.5978 	8.74242e-170
0.5985 	7.00808e-170
0.5992 	5.27373e-170
0.5999 	5.2356e-170
0.6006 	3.4802e-170
0.6013 	2.7258e-170
0.602 	2.35497e-170
0.6027 	1.98414e-170
0.6034 	1.6133e-170
0.6041 	1.24247e-170
0.6048 	1.19637e-170
0.6055 	8.63531e-171
0.6062 	6.33855e-171
0.6069 	5.51217e-171
0.6076 	4.68555e-171
0.6083 	3.85892e-171
0.609 	3.0323e-171
0.6097 	2.83271e-171
0.6104 	2.22392e-171
0.6111 	1.5345e-171
0.6118 	1.34248e-171
0.6125 	1.15033e-171
0.6132 	9.58189e-172
0.6139 	7.66043e-172
0.6146 	6.93801e-172
0.6153 	5.9279e-172
0.616 	3.85799e-172
0.6167 	3.39322e-172
0.6174 	2.92817e-172
0.6181 	2.46312e-172
0.6188 	1.99806e-172
0.6195 	1.75195e-172
0.6202 	1.62813e-172
0.6209 	1.00296e-172
0.6216 	8.86193e-173
0.6223 	7.69386e-173
0.623 	6.52579e-173
0.6237 	5.35771e-173
0.6244 	4.53941e-173
0.6251 	4.5811e-173
0.6258 	2.68043e-173
0.6265 	2.37745e-173
0.6272 	2.07455e-173
0.6279 	1.77164e-173
0.6286 	1.46873e-173
0.6293 	1.19993e-173
0.63 	1.31175e-173
0.6307 	7.69295e-174
0.6314 	6.50735e-174
0.6321 	5.70157e-174
0.6328 	4.89579e-174
0.6335 	4.09e-174
0.6342 	3.28422e-174
0.6349 	3.537e-174
0.6356 	2.3076e-174
0.6363 	1.804e-174
0.637 	1.58569e-174
0.6377 	1.36739e-174
0.6384 	1.14908e-174
0.6391 	9.30775e-175
0.6398 	9.5852e-175
0.6405 	6.9129e-175
0.6412 	5.0274e-175
0.6419 	4.42952e-175
0.6426 	3.83174e-175
0.6433 	3.23397e-175
0.644 	2.6362e-175
0.6447 	2.59274e-175
0.6454 	2.05445e-175
0.6461 	1.39762e-175
0.6468 	1.23337e-175
0.6475 	1.06923e-175
0.6482 	9.05093e-176
0.6489 	7.40954e-176
0.6496 	6.95e-176
0.6503 	6.015e-176
0.651 	3.84507e-176
0.6517 	3.39617e-176
0.6524 	2.94786e-176
0.6531 	2.49955e-176
0.6538 	2.05124e-176
0.6545 	1.83188e-176
0.6552 	1.72179e-176
0.6559 	1.03792e-176
0.6566 	9.16907e-177
0.6573 	7.96139e-177
0.658 	6.7537e-177
0.6587 	5.54602e-177
0.6594 	4.70583e-177
0.6601 	4.77627e-177
0.6608 	2.72205e-177
0.6615 	2.4033e-177
0.6622 	2.08545e-177
0.6629 	1.7676e-177
0.6636 	1.44974e-177
0.6643 	1.16537e-177
0.665 	1.26985e-177
0.6657 	7.22143e-178
0.6664 	6.04104e-178
0.6671 	5.23297e-178
0.6678 	4.42489e-178
0.6685 	3.61682e-178
0.6692 	2.80874e-178
0.6699 	2.96853e-178
0.6706 	1.87652e-178
0.6713 	1.43288e-178
0.672 	1.23737e-178
0.6727 	1.04186e-178
0.6734 	8.46347e-179
0.6741 	6.50836e-179
0.6748 	6.44597e-179
0.6755 	4.48247e-179
0.6762 	3.13651e-179
0.6769 	2.69543e-179
0.6776 	2.25452e-179
0.6783 	1.8136e-179
0.679 	1.37269e-179
0.6797 	1.26278e-179
0.6804 	9.56343e-180
0.6811 	6.13927e-180
0.6818 	5.23895e-180
0.6825 	4.33962e-180
0.6832 	3.44028e-180
0.6839 	2.54094e-180
0.6846 	2.13742e-180
0.6853 	1.74504e-180
0.686 	1.02592e-180
0.6867 	8.67046e-181
0.6874 	7.08452e-181
0.6881 	5.49857e-181
0.6888 	3.91263e-181
0.6895 	2.91924e-181
0.6902 	2.54183e-181
0.6909 	1.36193e-181
0.6916 	1.13622e-181
0.6923 	9.11054e-182
0.693 	6.85889e-182
0.6937 	4.60724e-182
0.6944 	2.8447e-182
0.6951 	2.61155e-182
0.6958 	1.26396e-182
0.6965 	1.0294e-182
0.6972 	8.04491e-183
0.6979 	5.79578e-183
0.6986 	3.54665e-183
0.6993 	1.46533e-183
0.7 	1.37665e-183
