0 	1
0.0007 	1
0.0014 	1
0.0021 	1
0.0028 	1
0.0035 	1
0.0042 	1
0.0049 	1
0.0056 	1
0.0063 	1
0.007 	1
0.0077 	1
0.0084 	1
0.0091 	1
0.0098 	1
0.0105 	1
0.0112 	1
0.0119 	1
0.0126 	1
0.0133 	1
0.014 	1
0.0147 	1
0.0154 	1
0.0161 	1
0.0168 	1
0.0175 	1
0.0182 	1
0.0189 	1
0.0196 	1
0.0203 	1
0.021 	1
0.0217 	1
0.0224 	1
0.0231 	1
0.0238 	1
0.0245 	1
0.0252 	1
0.0259 	1
0.0266 	1
0.0273 	1
0.028 	1
0.0287 	1
0.0294 	1
0.0301 	1
0.0308 	1
0.0315 	1
0.0322 	1
0.0329 	1
0.0336 	1
0.0343 	1
0.035 	1
0.0357 	1
0.0364 	1
0.0371 	1
0.0378 	1
0.0385 	1
0.0392 	1
0.0399 	1
0.0406 	1
0.0413 	1
0.042 	1
0.0427 	1
0.0434 	1
0.0441 	1
0.0448 	1
0.0455 	1
0.0462 	1
0.0469 	1
0.0476 	1
0.0483 	1
0.049 	1
0.0497 	1
0.0504 	1
0.0511 	1
0.0518 	1
0.0525 	1
0.0532 	1
0.0539 	1
0.0546 	1
0.0553 	1
0.056 	1
0.0567 	1
0.0574 	1
0.0581 	1
0.0588 	1
0.0595 	1
0.0602 	1
0.0609 	1
0.0616 	1
0.0623 	1
0.063 	1
0.0637 	1
0.0644 	1
0.0651 	1
0.0658 	1
0.0665 	1
0.0672 	1
0.0679 	1
0.0686 	1
0.0693 	1
0.07 	1
0.0707 	1
0.0714 	1
0.0721 	1
0.0728 	1
0.0735 	1
0.0742 	1
0.0749 	1
0.0756 	1
0.0763 	1
0.077 	1
0.0777 	1
0.0784 	1
0.0791 	1
0.0798 	1
0.0805 	1
0.0812 	1
0.0819 	1
0.0826 	1
0.0833 	1
0.084 	1
0.0847 	1
0.0854 	1
0.0861 	1
0.0868 	1
0.0875 	1
0.0882 	1
0.0889 	1
0.0896 	1
0.0903 	1
0.091 	1
0.0917 	1
0.0924 	1
0.0931 	1
0.0938 	1
0.0945 	1
0.0952 	1
0.0959 	1
0.0966 	1
0.0973 	1
0.098 	1
0.0987 	1
0.0994 	1
0.1001 	1
0.1008 	1
0.1015 	1
0.1022 	1
0.1029 	1
0.1036 	1
0.1043 	1
0.105 	1
0.1057 	1
0.1064 	1
0.1071 	1
0.1078 	1
0.1085 	1
0.1092 	1
0.1099 	1
0.1106 	1
0.1113 	1
0.112 	1
0.1127 	1
0.1134 	1
0.1141 	1
0.1148 	1
0.1155 	1
0.1162 	1
0.1169 	1
0.1176 	1
0.1183 	1
0.119 	1
0.1197 	1
0.1204 	1
0.1211 	1
0.1218 	1
0.1225 	1
0.1232 	1
0.1239 	1
0.1246 	1
0.1253 	1
0.126 	1
0.1267 	1
0.1274 	1
0.1281 	1
0.1288 	1
0.1295 	1
0.1302 	1
0.1309 	1
0.1316 	1
0.1323 	1
0.133 	1
0.1337 	1
0.1344 	1
0.1351 	1
0.1358 	1
0.1365 	1
0.1372 	1
0.1379 	1
0.1386 	1
0.1393 	1
0.14 	1
0.1407 	1
0.1414 	1
0.1421 	1
0.1428 	1
0.1435 	1
0.1442 	1
0.1449 	1
0.1456 	1
0.1463 	1
0.147 	1
0.1477 	1
0.1484 	1
0.1491 	1
0.1498 	1
0.1505 	1
0.1512 	1
0.1519 	1
0.1526 	1
0.1533 	1
0.154 	1
0.1547 	1
0.1554 	1
0.1561 	1
0.1568 	1
0.1575 	1
0.1582 	1
0.1589 	1
0.1596 	1
0.1603 	1
0.161 	1
0.1617 	1
0.1624 	1
0.1631 	1
0.1638 	1
0.1645 	1
0.1652 	1
0.1659 	1
0.1666 	1
0.1673 	1
0.168 	1
0.1687 	1
0.1694 	1
0.1701 	1
0.1708 	1
0.1715 	1
0.1722 	1
0.1729 	1
0.1736 	1
0.1743 	1
0.175 	1
0.1757 	1
0.1764 	1
0.1771 	1
0.1778 	1
0.1785 	1
0.1792 	1
0.1799 	1
0.1806 	1
0.1813 	1
0.182 	1
0.1827 	1
0.1834 	1
0.1841 	1
0.1848 	1
0.1855 	1
0.1862 	1
0.1869 	1
0.1876 	1
0.1883 	1
0.189 	1
0.1897 	1
0.1904 	1
0.1911 	1
0.1918 	1
0.1925 	1
0.1932 	1
0.1939 	1
0.1946 	1
0.1953 	1
0.196 	1
0.1967 	1
0.1974 	1
0.1981 	1
0.1988 	1
0.1995 	1
0.2002 	1
0.2009 	1
0.2016 	1
0.2023 	1
0.203 	1
0.2037 	1
0.2044 	1
0.2051 	1
0.2058 	1
0.2065 	1
0.2072 	1
0.2079 	1
0.2086 	1
0.2093 	1
0.21 	1
0.2107 	1
0.2114 	1
0.2121 	1
0.2128 	1
0.2135 	1
0.2142 	1
0.2149 	1
0.2156 	1
0.2163 	1
0.217 	1
0.2177 	1
0.2184 	1
0.2191 	1
0.2198 	1
0.2205 	1
0.2212 	1
0.2219 	1
0.2226 	1
0.2233 	1
0.224 	1
0.2247 	1
0.2254 	1
0.2261 	1
0.2268 	0.999999
0.2275 	0.999998
0.2282 	0.999997
0.2289 	0.999995
0.2296 	0.999993
0.2303 	0.99999
0.231 	0.999988
0.2317 	0.999849
0.2324 	0.999637
0.2331 	0.999469
0.2338 	0.999287
0.2345 	0.998907
0.2352 	0.998529
0.2359 	0.998157
0.2366 	0.995348
0.2373 	0.9901
0.238 	0.985923
0.2387 	0.981845
0.2394 	0.973236
0.2401 	0.964299
0.2408 	0.95549
0.2415 	0.933588
0.2422 	0.88812
0.2429 	0.845466
0.2436 	0.803631
0.2443 	0.732985
0.245 	0.654481
0.2457 	0.575569
0.2464 	0.500034
0.2471 	0.436881
0.2478 	0.373392
0.2485 	0.30971
0.2492 	0.25616
0.2499 	0.20824
0.2506 	0.15966
0.2513 	0.112712
0.252 	0.0884086
0.2527 	0.0622927
0.2534 	0.0343197
0.2541 	0.0185444
0.2548 	0.0149671
0.2555 	0.0112258
0.2562 	0.00741898
0.2569 	0.00566448
0.2576 	0.00384132
0.2583 	0.00160393
0.259 	0.000156303
0.2597 	0.000130256
0.2604 	0.000100413
0.2611 	6.77239e-05
0.2618 	5.19603e-05
0.2625 	3.85918e-05
0.2632 	1.70295e-05
0.2639 	8.56839e-08
0.2646 	7.65596e-08
0.2653 	6.30451e-08
0.266 	4.36769e-08
0.2667 	3.37468e-08
0.2674 	2.833e-08
0.2681 	1.36417e-08
0.2688 	2.4819e-12
0.2695 	2.34996e-12
0.2702 	2.08185e-12
0.2709 	1.47332e-12
0.2716 	1.11061e-12
0.2723 	9.93727e-13
0.273 	5.27071e-13
0.2737 	3.51909e-14
0.2744 	5.41256e-17
0.2751 	4.99564e-17
0.2758 	3.59682e-17
0.2765 	2.60776e-17
0.2772 	2.35625e-17
0.2779 	1.39421e-17
0.2786 	2.46134e-18
0.2793 	1.16563e-21
0.28 	1.15037e-21
0.2807 	8.41762e-22
0.2814 	5.89073e-22
0.2821 	5.41424e-22
0.2828 	3.54488e-22
0.2835 	9.33022e-23
0.2842 	2.18198e-26
0.2849 	2.23848e-26
0.2856 	1.73182e-26
0.2863 	1.16864e-26
0.287 	1.09086e-26
0.2877 	7.8495e-27
0.2884 	2.61673e-27
0.2891 	3.55614e-31
0.2898 	3.78872e-31
0.2905 	3.12145e-31
0.2912 	2.09423e-31
0.2919 	1.91782e-31
0.2926 	1.50699e-31
0.2933 	5.89723e-32
0.294 	5.10637e-36
0.2947 	5.64217e-36
0.2954 	4.98029e-36
0.2961 	3.42014e-36
0.2968 	2.97555e-36
0.2975 	2.53834e-36
0.2982 	1.1169e-36
0.2989 	6.53597e-41
0.2996 	7.47923e-41
0.3003 	7.10742e-41
0.301 	4.98217e-41
0.3017 	4.12064e-41
0.3024 	3.79556e-41
0.3031 	1.82753e-41
0.3038 	7.53623e-46
0.3045 	8.92132e-46
0.3052 	9.16174e-46
0.3059 	6.54049e-46
0.3066 	5.14756e-46
0.3073 	4.98293e-46
0.308 	2.63506e-46
0.3087 	1.75747e-47
0.3094 	9.66785e-51
0.3101 	1.07629e-50
0.3108 	7.81023e-51
0.3115 	5.85645e-51
0.3122 	5.70067e-51
0.3129 	3.39982e-51
0.3136 	6.00035e-52
0.3143 	9.59311e-56
0.315 	1.16114e-55
0.3157 	8.55124e-56
0.3164 	6.11774e-56
0.3171 	5.98194e-56
0.3178 	3.97265e-56
0.3185 	1.04549e-56
0.3192 	8.76477e-61
0.3199 	1.08535e-60
0.3206 	8.63658e-61
0.3213 	5.90387e-61
0.322 	5.79469e-61
0.3227 	4.24174e-61
0.3234 	1.41396e-61
0.3241 	7.39633e-66
0.3248 	9.37702e-66
0.3255 	8.07677e-66
0.3262 	5.46414e-66
0.3269 	5.20246e-66
0.3276 	4.1626e-66
0.3283 	1.62888e-66
0.329 	5.76913e-71
0.3297 	7.4979e-71
0.3304 	7.00342e-71
0.3311 	4.84152e-71
0.3318 	4.33509e-71
0.3325 	3.76497e-71
0.3332 	1.65661e-71
0.3339 	4.15486e-76
0.3346 	5.54465e-76
0.3353 	5.62687e-76
0.336 	3.96567e-76
0.3367 	3.35044e-76
0.3374 	3.13968e-76
0.3381 	1.51171e-76
0.3388 	2.75674e-81
0.3395 	3.78437e-81
0.3402 	4.18048e-81
0.3409 	2.99779e-81
0.3416 	2.39678e-81
0.3423 	2.37743e-81
0.343 	1.24703e-81
0.3437 	8.31522e-83
0.3444 	2.37799e-86
0.3451 	2.86459e-86
0.3458 	2.08658e-86
0.3465 	1.58287e-86
0.3472 	1.57289e-86
0.3479 	9.32973e-87
0.3486 	1.64651e-87
0.3493 	1.3724e-91
0.35 	1.80587e-91
0.3507 	1.33423e-91
0.3514 	9.62659e-92
0.3521 	9.5798e-92
0.3528 	6.33935e-92
0.3535 	1.66829e-92
0.3542 	7.26028e-97
0.3549 	9.72481e-97
0.3556 	7.82336e-97
0.3563 	5.38062e-97
0.357 	5.36067e-97
0.3577 	3.91476e-97
0.3584 	1.30494e-97
0.3591 	3.51549e-102
0.3598 	4.79588e-102
0.3605 	4.20082e-102
0.3612 	2.85557e-102
0.3619 	2.75228e-102
0.3626 	2.19834e-102
0.3633 	8.60228e-103
0.364 	-9.4218e-107
0.3647 	-3.955e-106
0.3654 	-3.52592e-106
0.3661 	-5.15412e-107
0.3668 	1.29479e-107
0.3675 	1.12263e-107
0.3682 	4.9363e-108
0.3689 	-3.92167e-108
0.3696 	-2.21954e-107
0.3703 	-2.4806e-107
0.371 	-6.53222e-108
0.3717 	-3.55585e-111
0.3724 	-3.84633e-112
0.3731 	-4.11421e-112
0.3738 	-5.27303e-110
0.3745 	-7.8485e-109
0.3752 	-1.09861e-108
0.3759 	-3.66473e-109
0.3766 	-2.78509e-112
0.3773 	-2.63599e-113
0.378 	-2.16316e-113
0.3787 	-1.92777e-113
0.3794 	-2.28263e-110
0.3801 	-4.03701e-110
0.3808 	-1.58073e-110
0.3815 	-1.31047e-113
0.3822 	-2.56851e-114
0.3829 	-8.53802e-115
0.3836 	-6.89885e-115
0.3843 	-5.57828e-112
0.385 	-1.26696e-111
0.3857 	-5.57775e-112
0.3864 	-4.8494e-115
0.3871 	-1.3456e-115
0.3878 	-2.82036e-116
0.3885 	-2.12843e-116
0.3892 	-1.14563e-113
0.3899 	-2.92479e-113
0.3906 	-1.65381e-113
0.3913 	-1.49052e-116
0.392 	-5.1446e-117
0.3927 	-8.18542e-118
0.3934 	-5.84087e-118
0.3941 	-1.9685e-115
0.3948 	-5.89617e-115
0.3955 	-4.21251e-115
0.3962 	-2.84329e-116
0.3969 	-1.57469e-118
0.3976 	-2.12577e-119
0.3983 	-1.45339e-119
0.399 	-2.77088e-117
0.3997 	-1.05008e-116
0.4004 	-9.39576e-117
0.4011 	-1.66459e-117
0.4018 	-4.04808e-120
0.4025 	-4.9875e-121
0.4032 	-3.31416e-121
0.4039 	-2.96102e-119
0.4046 	-1.66858e-118
0.4053 	-1.86453e-118
0.406 	-4.91768e-119
0.4067 	-9.01049e-122
0.4074 	-1.06346e-122
0.4081 	-6.95908e-123
0.4088 	-1.62129e-121
0.4095 	-2.38229e-120
0.4102 	-3.33363e-120
0.4109 	-1.11292e-120
0.4116 	-1.77302e-123
0.4123 	-2.07136e-124
0.413 	-1.34891e-124
0.4137 	-6.26452e-125
0.4144 	-3.06723e-122
0.4151 	-5.42208e-122
0.4158 	-2.12412e-122
0.4165 	-3.1286e-125
0.4172 	-6.71998e-126
0.4179 	-2.41997e-126
0.4186 	-1.13361e-126
0.4193 	-3.56161e-124
0.42 	-8.08366e-124
0.4207 	-3.56003e-124
0.4214 	-5.00153e-127
0.4221 	-1.49984e-127
0.4228 	-4.03183e-128
0.4235 	-1.93518e-128
0.4242 	-3.71384e-126
0.4249 	-9.47246e-126
0.4256 	-5.35712e-126
0.4263 	-7.30364e-129
0.427 	-2.69788e-129
0.4277 	-6.25925e-130
0.4284 	-3.10542e-130
0.4291 	-3.43588e-128
0.4298 	-1.02771e-127
0.4305 	-7.34278e-128
0.4312 	-4.98295e-129
0.4319 	-4.19388e-131
0.4326 	-9.08151e-132
0.4333 	-4.67615e-132
0.434 	-2.73761e-130
0.4347 	-1.03513e-129
0.4354 	-9.26118e-130
0.4361 	-1.64325e-130
0.4368 	-5.81913e-133
0.4375 	-1.23479e-133
0.4382 	-6.60497e-134
0.4389 	-1.7278e-132
0.4396 	-9.69322e-132
0.4403 	-1.08289e-131
0.441 	-2.85834e-132
0.4417 	-7.34284e-135
0.4424 	-1.57745e-135
0.4431 	-8.75748e-136
0.4438 	-5.83492e-135
0.4445 	-8.43853e-134
0.4452 	-1.18033e-133
0.4459 	-3.94238e-134
0.4466 	-8.52914e-137
0.4473 	-1.89791e-137
0.448 	-1.09141e-137
0.4487 	-2.84896e-138
0.4494 	-6.81717e-136
0.4501 	-1.20428e-135
0.4508 	-4.71938e-136
0.4515 	-9.19619e-139
0.4522 	-2.76281e-139
0.4529 	-1.28034e-139
0.4536 	-4.05928e-140
0.4543 	-5.08998e-138
0.455 	-1.15403e-137
0.4557 	-5.08361e-138
0.4564 	-9.25845e-141
0.4571 	-3.51957e-141
0.4578 	-1.41572e-141
0.4585 	-5.19598e-142
0.4592 	-3.48551e-140
0.4599 	-8.87637e-140
0.4606 	-5.02053e-140
0.4613 	-8.74093e-143
0.462 	-3.89497e-143
0.4627 	-1.47713e-143
0.4634 	-6.07812e-144
0.4641 	-2.15679e-142
0.4648 	-6.43573e-142
0.4655 	-4.59796e-142
0.4662 	-3.13513e-143
0.4669 	-3.88503e-145
0.4676 	-1.45553e-145
0.4683 	-6.56494e-146
0.469 	-1.16824e-144
0.4697 	-4.39933e-144
0.4704 	-3.93505e-144
0.4711 	-6.99254e-145
0.4718 	-3.55774e-147
0.4725 	-1.35529e-147
0.4732 	-6.59047e-148
0.4739 	-5.09323e-147
0.4746 	-2.83389e-146
0.4753 	-3.16434e-146
0.476 	-8.35953e-147
0.4767 	-3.02323e-149
0.4774 	-1.19291e-149
0.4781 	-6.1765e-150
0.4788 	-1.22306e-149
0.4795 	-1.71772e-148
0.4802 	-2.40063e-148
0.4809 	-8.02295e-149
0.4816 	-2.40013e-151
0.4823 	-9.92888e-152
0.483 	-5.42105e-152
0.4837 	-9.13229e-153
0.4844 	-9.76899e-151
0.4851 	-1.72351e-150
0.4858 	-6.75711e-151
0.4865 	-1.78852e-153
0.4872 	-8.37074e-154
0.4879 	-4.46728e-154
0.4886 	-1.11606e-154
0.4893 	-5.18677e-153
0.49 	-1.17375e-152
0.4907 	-5.17221e-153
0.4914 	-1.25531e-155
0.4921 	-6.64345e-156
0.4928 	-3.4643e-156
0.4935 	-1.09927e-156
0.4942 	-2.54856e-155
0.4949 	-6.47338e-155
0.4956 	-3.66183e-155
0.4963 	-8.32183e-158
0.497 	-4.8259e-158
0.4977 	-2.53376e-158
0.4984 	-9.47883e-159
0.4991 	-1.14049e-157
0.4998 	-3.39047e-157
0.5005 	-2.42203e-157
0.5012 	-1.66209e-158
0.5019 	-3.25216e-160
0.5026 	-1.75153e-160
0.5033 	-7.40006e-161
0.504 	-4.49824e-160
0.5047 	-1.6842e-159
0.5054 	-1.50591e-159
0.5061 	-2.68122e-160
0.5068 	-2.05023e-162
0.5075 	-1.14655e-162
0.5082 	-5.32199e-163
0.5089 	-1.43815e-162
0.5096 	-7.91853e-162
0.5103 	-8.83618e-162
0.511 	-2.33684e-162
0.5117 	-1.21579e-164
0.5124 	-7.118e-165
0.5131 	-3.56199e-165
0.5138 	-2.58477e-165
0.5145 	-3.51316e-164
0.5152 	-4.90517e-164
0.5159 	-1.64048e-164
0.5166 	-6.80686e-167
0.5173 	-4.19561e-167
0.518 	-2.23291e-167
0.5187 	-2.70214e-168
0.5194 	-1.4643e-166
0.5201 	-2.57997e-166
0.5208 	-1.01202e-166
0.5215 	-3.60691e-169
0.5222 	-2.36454e-169
0.5229 	-1.31656e-169
0.5236 	-2.83304e-170
0.5243 	-5.69624e-169
0.525 	-1.28672e-168
0.5257 	-5.67238e-169
0.5264 	-1.81183e-171
0.5271 	-1.25839e-171
0.5278 	-7.32229e-172
0.5285 	-2.13342e-172
0.5292 	-2.04703e-171
0.5299 	-5.18771e-171
0.5306 	-2.93514e-171
0.5313 	-8.63643e-174
0.532 	-6.28695e-174
0.5327 	-3.84909e-174
0.5334 	-1.36347e-174
0.5341 	-6.67908e-174
0.5348 	-1.97959e-173
0.5355 	-1.41415e-173
0.5362 	-9.78603e-175
0.5369 	-2.95933e-176
0.5376 	-1.91504e-176
0.5383 	-7.79412e-177
0.539 	-1.91308e-176
0.5397 	-7.13149e-176
0.5404 	-6.37533e-176
0.5411 	-1.13825e-176
0.5418 	-1.31552e-178
0.5425 	-9.02642e-179
0.5432 	-4.07907e-179
0.5439 	-4.42548e-179
0.5446 	-2.41822e-178
0.5453 	-2.69738e-178
0.546 	-7.14544e-179
0.5467 	-5.53128e-181
0.5474 	-4.033e-181
0.5481 	-1.97855e-181
0.5488 	-5.78852e-182
0.5495 	-7.69091e-181
0.5502 	-1.07315e-180
0.5509 	-3.59338e-181
0.5516 	-2.20225e-183
0.5523 	-1.70879e-183
0.553 	-8.95851e-184
0.5537 	-8.29088e-185
0.5544 	-2.28392e-183
0.5551 	-4.02039e-183
0.5558 	-1.57859e-183
0.5565 	-8.31031e-186
0.5572 	-6.78779e-186
0.5579 	-3.80381e-186
0.5586 	-7.39408e-187
0.5593 	-6.29424e-186
0.56 	-1.41998e-185
0.5607 	-6.26512e-186
0.5614 	-2.97468e-188
0.5621 	-2.49934e-188
0.5628 	-1.51939e-188
0.5635 	-4.19139e-189
0.5642 	-1.59477e-188
0.5649 	-4.03478e-188
0.5656 	-2.28424e-188
0.5663 	-1.01081e-190
0.567 	-8.70076e-191
0.5677 	-5.72233e-191
0.5684 	-1.95998e-191
0.5691 	-3.65532e-191
0.5698 	-1.08083e-190
0.5705 	-7.72416e-191
0.5712 	-5.45124e-192
0.5719 	-2.86744e-193
0.5726 	-2.03516e-193
0.5733 	-8.10089e-194
0.574 	-7.33736e-194
0.5747 	-2.72507e-193
0.5754 	-2.43651e-193
0.5761 	-4.38023e-194
0.5768 	-8.95226e-196
0.5775 	-6.84033e-196
0.5782 	-3.04407e-196
0.5789 	-1.18868e-196
0.5796 	-6.44978e-196
0.5803 	-7.19342e-196
0.581 	-1.91377e-196
0.5817 	-2.64758e-198
0.5824 	-2.17259e-198
0.5831 	-1.05427e-198
0.5838 	-1.09919e-199
0.5845 	-1.42717e-198
0.5852 	-1.99042e-198
0.5859 	-6.68623e-199
0.5866 	-7.41124e-201
0.5873 	-6.51528e-201
0.588 	-3.38869e-201
0.5887 	-2.62094e-202
0.5894 	-2.93407e-201
0.5901 	-5.15973e-201
0.5908 	-2.03127e-201
0.5915 	-1.96078e-203
0.5922 	-1.81795e-203
0.5929 	-1.01424e-203
0.5936 	-1.86385e-204
0.5943 	-5.55338e-204
0.595 	-1.25069e-203
0.5957 	-5.5308e-204
0.5964 	-4.89378e-206
0.5971 	-4.59053e-206
0.5978 	-2.83034e-206
0.5985 	-7.59326e-207
0.5992 	-9.54852e-207
0.5999 	-2.40956e-206
0.6006 	-1.36657e-206
0.6013 	-1.14973e-208
0.602 	-1.08935e-208
0.6027 	-7.36478e-209
0.6034 	-2.48199e-209
0.6041 	-1.46111e-209
0.6048 	-4.30212e-209
0.6055 	-3.07841e-209
0.6062 	-2.28826e-210
0.6069 	-2.4245e-211
0.6076 	-1.78571e-211
0.6083 	-7.03548e-212
0.609 	-1.91926e-212
0.6097 	-7.07269e-212
0.6104 	-6.32793e-212
0.6111 	-1.15953e-212
0.6118 	-5.04957e-214
0.6125 	-4.02945e-214
0.6132 	-1.78098e-214
0.6139 	-1.99436e-215
0.6146 	-1.06331e-214
0.6153 	-1.18569e-214
0.616 	-3.19404e-215
0.6167 	-9.81751e-217
0.6174 	-8.44739e-217
0.6181 	-4.07989e-217
0.6188 	-1.19462e-218
0.6195 	-1.45086e-217
0.6202 	-2.02045e-217
0.6209 	-6.8548e-218
0.6216 	-1.7772e-219
0.6223 	-1.64194e-219
0.623 	-8.51145e-220
0.6237 	-6.03517e-221
0.6244 	-1.78087e-220
0.6251 	-3.12033e-220
0.6258 	-1.23931e-220
0.6265 	-2.98752e-222
0.6272 	-2.92673e-222
0.6279 	-1.62168e-222
0.6286 	-2.90883e-223
0.6293 	-1.94562e-223
0.63 	-4.34912e-223
0.6307 	-1.93975e-223
0.6314 	-4.65087e-225
0.6321 	-4.57702e-225
0.6328 	-2.82433e-225
0.6335 	-7.49021e-226
0.6342 	-1.86891e-226
0.6349 	-4.6541e-226
0.6356 	-2.65914e-226
0.6363 	-6.68463e-228
0.637 	-6.60384e-228
0.6377 	-4.49356e-228
0.6384 	-1.5045e-228
0.6391 	-1.55753e-229
0.6398 	-4.47318e-229
0.6405 	-3.21906e-229
0.6412 	-2.97032e-230
0.6419 	-8.75813e-231
0.6426 	-6.51788e-231
0.6433 	-2.5576e-231
0.644 	-1.107e-232
0.6447 	-3.87885e-232
0.6454 	-3.47962e-232
0.6461 	-7.02067e-233
0.6468 	-1.06325e-233
0.6475 	-8.59367e-234
0.6482 	-3.7883e-234
0.6489 	-6.44362e-236
0.6496 	-3.06087e-235
0.6503 	-3.40407e-235
0.651 	-9.82879e-236
0.6517 	-1.17798e-236
0.6524 	-1.02768e-236
0.6531 	-4.95461e-237
0.6538 	-2.6378e-239
0.6545 	-2.19652e-238
0.6552 	-3.02382e-238
0.6559 	-1.0875e-238
0.6566 	-1.19122e-239
0.6573 	-1.11572e-239
0.658 	-5.77649e-240
0.6587 	-3.95811e-241
0.6594 	-1.39439e-241
0.6601 	-2.37832e-241
0.6608 	-9.97868e-242
0.6615 	-1.10328e-242
0.6622 	-1.10028e-242
0.6629 	-6.06018e-243
0.6636 	-1.07736e-243
0.6643 	-7.42467e-245
0.665 	-1.56507e-244
0.6657 	-7.41063e-245
0.6664 	-9.35902e-246
0.6671 	-9.34205e-246
0.6678 	-5.74443e-246
0.6685 	-1.51704e-246
0.6692 	-3.15979e-248
0.6699 	-6.94554e-248
0.6706 	-4.23628e-248
0.6713 	-7.15309e-249
0.672 	-7.14599e-249
0.6727 	-4.85283e-249
0.6734 	-1.62078e-249
0.6741 	-1.09176e-251
0.6748 	-2.32491e-251
0.6755 	-1.79523e-251
0.6762 	-5.60422e-252
0.6769 	-4.72052e-252
0.6776 	-3.50909e-252
0.6783 	-1.37466e-252
0.679 	-3.51062e-255
0.6797 	-6.27232e-255
0.6804 	-5.87651e-255
0.6811 	-3.11258e-255
0.6818 	-2.52018e-255
0.6825 	-2.03545e-255
0.6832 	-8.96156e-256
0.6839 	-1.12463e-258
0.6846 	-1.73255e-258
0.6853 	-1.81934e-258
0.686 	-1.21132e-258
0.6867 	-9.94184e-259
0.6874 	-8.66854e-259
0.6881 	-4.17506e-259
0.6888 	-2.65992e-262
0.6895 	-4.40742e-262
0.6902 	-5.15618e-262
0.6909 	-3.40808e-262
0.6916 	-2.53402e-262
0.6923 	-2.37229e-262
0.693 	-1.22721e-262
0.6937 	-8.2131e-264
0.6944 	-6.51726e-266
0.6951 	-8.91267e-266
0.6958 	-5.55639e-266
0.6965 	-3.39869e-266
0.6972 	-3.39844e-266
0.6979 	-1.86497e-266
0.6986 	-3.29708e-267
0.6993 	-1.4333e-269
0.7 	-2.3368e-269
