0 	1
0.0007 	1
0.0014 	1
0.0021 	1
0.0028 	1
0.0035 	1
0.0042 	1
0.0049 	1
0.0056 	1
0.0063 	1
0.007 	1
0.0077 	1
0.0084 	1
0.0091 	1
0.0098 	1
0.0105 	1
0.0112 	1
0.0119 	1
0.0126 	1
0.0133 	1
0.014 	1
0.0147 	1
0.0154 	1
0.0161 	1
0.0168 	1
0.0175 	1
0.0182 	1
0.0189 	1
0.0196 	1
0.0203 	1
0.021 	1
0.0217 	1
0.0224 	1
0.0231 	1
0.0238 	1
0.0245 	1
0.0252 	1
0.0259 	1
0.0266 	1
0.0273 	1
0.028 	1
0.0287 	1
0.0294 	1
0.0301 	1
0.0308 	1
0.0315 	1
0.0322 	1
0.0329 	1
0.0336 	1
0.0343 	1
0.035 	1
0.0357 	1
0.0364 	1
0.0371 	1
0.0378 	1
0.0385 	1
0.0392 	1
0.0399 	1
0.0406 	1
0.0413 	1
0.042 	1
0.0427 	1
0.0434 	1
0.0441 	1
0.0448 	1
0.0455 	1
0.0462 	1
0.0469 	1
0.0476 	1
0.0483 	1
0.049 	1
0.0497 	1
0.0504 	1
0.0511 	1
0.0518 	1
0.0525 	1
0.0532 	1
0.0539 	1
0.0546 	1
0.0553 	1
0.056 	1
0.0567 	1
0.0574 	1
0.0581 	1
0.0588 	1
0.0595 	1
0.0602 	1
0.0609 	1
0.0616 	1
0.0623 	1
0.063 	1
0.0637 	1
0.0644 	1
0.0651 	1
0.0658 	1
0.0665 	1
0.0672 	1
0.0679 	1
0.0686 	1
0.0693 	1
0.07 	1
0.0707 	1
0.0714 	1
0.0721 	1
0.0728 	1
0.0735 	1
0.0742 	1
0.0749 	1
0.0756 	1
0.0763 	1
0.077 	1
0.0777 	1
0.0784 	1
0.0791 	1
0.0798 	1
0.0805 	1
0.0812 	1
0.0819 	1
0.0826 	1
0.0833 	1
0.084 	1
0.0847 	1
0.0854 	1
0.0861 	1
0.0868 	1
0.0875 	1
0.0882 	1
0.0889 	1
0.0896 	1
0.0903 	1
0.091 	1
0.0917 	1
0.0924 	1
0.0931 	1
0.0938 	1
0.0945 	1
0.0952 	1
0.0959 	1
0.0966 	1
0.0973 	1
0.098 	1
0.0987 	1
0.0994 	1
0.1001 	1
0.1008 	1
0.1015 	1
0.1022 	1
0.1029 	1
0.1036 	1
0.1043 	1
0.105 	1
0.1057 	1
0.1064 	1
0.1071 	1
0.1078 	1
0.1085 	1
0.1092 	1
0.1099 	1
0.1106 	1
0.1113 	1
0.112 	1
0.1127 	1
0.1134 	1
0.1141 	1
0.1148 	1
0.1155 	1
0.1162 	1
0.1169 	1
0.1176 	1
0.1183 	1
0.119 	1
0.1197 	1
0.1204 	1
0.1211 	1
0.1218 	1
0.1225 	1
0.1232 	1
0.1239 	1
0.1246 	1
0.1253 	1
0.126 	1
0.1267 	1
0.1274 	1
0.1281 	1
0.1288 	1
0.1295 	1
0.1302 	1
0.1309 	1
0.1316 	1
0.1323 	1
0.133 	1
0.1337 	1
0.1344 	1
0.1351 	1
0.1358 	1
0.1365 	1
0.1372 	1
0.1379 	1
0.1386 	1
0.1393 	1
0.14 	1
0.1407 	1
0.1414 	1
0.1421 	1
0.1428 	1
0.1435 	1
0.1442 	1
0.1449 	1
0.1456 	1
0.1463 	1
0.147 	1
0.1477 	1
0.1484 	1
0.1491 	1
0.1498 	1
0.1505 	1
0.1512 	1
0.1519 	1
0.1526 	1
0.1533 	1
0.154 	1
0.1547 	1
0.1554 	1
0.1561 	1
0.1568 	1
0.1575 	1
0.1582 	1
0.1589 	1
0.1596 	1
0.1603 	1
0.161 	1
0.1617 	1
0.1624 	1
0.1631 	1
0.1638 	1
0.1645 	1
0.1652 	1
0.1659 	1
0.1666 	1
0.1673 	1
0.168 	1
0.1687 	1
0.1694 	1
0.1701 	1
0.1708 	1
0.1715 	1
0.1722 	1
0.1729 	1
0.1736 	1
0.1743 	1
0.175 	1
0.1757 	1
0.1764 	1
0.1771 	1
0.1778 	1
0.1785 	1
0.1792 	1
0.1799 	1
0.1806 	1
0.1813 	1
0.182 	1
0.1827 	1
0.1834 	1
0.1841 	1
0.1848 	1
0.1855 	1
0.1862 	1
0.1869 	1
0.1876 	1
0.1883 	1
0.189 	1
0.1897 	1
0.1904 	1
0.1911 	1
0.1918 	1
0.1925 	1
0.1932 	1
0.1939 	1
0.1946 	1
0.1953 	1
0.196 	1
0.1967 	1
0.1974 	1
0.1981 	1
0.1988 	1
0.1995 	1
0.2002 	1
0.2009 	1
0.2016 	1
0.2023 	1
0.203 	1
0.2037 	1
0.2044 	1
0.2051 	1
0.2058 	1
0.2065 	1
0.2072 	1
0.2079 	1
0.2086 	1
0.2093 	1
0.21 	1
0.2107 	1
0.2114 	1
0.2121 	1
0.2128 	0.999999
0.2135 	0.999999
0.2142 	0.999999
0.2149 	0.999999
0.2156 	0.999989
0.2163 	0.999978
0.217 	0.999966
0.2177 	0.999955
0.2184 	0.999944
0.2191 	0.999932
0.2198 	0.999921
0.2205 	0.999796
0.2212 	0.999625
0.2219 	0.999454
0.2226 	0.999284
0.2233 	0.999113
0.224 	0.998943
0.2247 	0.998772
0.2254 	0.996536
0.2261 	0.99275
0.2268 	0.988964
0.2275 	0.985179
0.2282 	0.981393
0.2289 	0.977607
0.2296 	0.973822
0.2303 	0.955487
0.231 	0.917728
0.2317 	0.879971
0.2324 	0.842214
0.2331 	0.804457
0.2338 	0.7667
0.2345 	0.728943
0.2352 	0.684113
0.2359 	0.621629
0.2366 	0.559145
0.2373 	0.496661
0.238 	0.434177
0.2387 	0.371693
0.2394 	0.309209
0.2401 	0.251071
0.2408 	0.21909
0.2415 	0.187108
0.2422 	0.155126
0.2429 	0.123143
0.2436 	0.0911602
0.2443 	0.0591775
0.245 	0.0272028
0.2457 	0.0234826
0.2464 	0.0197646
0.2471 	0.0160462
0.2478 	0.0123279
0.2485 	0.00860953
0.2492 	0.00489119
0.2499 	0.00117285
0.2506 	0.000566026
0.2513 	0.000476462
0.252 	0.000386888
0.2527 	0.000297314
0.2534 	0.000207741
0.2541 	0.000118167
0.2548 	2.8593e-05
0.2555 	2.7309e-06
0.2562 	2.31106e-06
0.2569 	1.89119e-06
0.2576 	1.47131e-06
0.2583 	1.05143e-06
0.259 	6.31555e-07
0.2597 	2.11678e-07
0.2604 	2.94892e-08
0.2611 	2.53176e-08
0.2618 	2.11475e-08
0.2625 	1.69778e-08
0.2632 	1.28081e-08
0.2639 	8.63842e-09
0.2646 	4.46873e-09
0.2653 	1.97088e-09
0.266 	1.69933e-09
0.2667 	1.42798e-09
0.2674 	1.15673e-09
0.2681 	8.85478e-10
0.2688 	6.14228e-10
0.2695 	3.42978e-10
0.2702 	1.43737e-10
0.2709 	1.24256e-10
0.2716 	1.04791e-10
0.2723 	8.53449e-11
0.273 	6.58984e-11
0.2737 	4.64519e-11
0.2744 	2.70053e-11
0.2751 	1.01458e-11
0.2758 	8.77176e-12
0.2765 	7.39905e-12
0.2772 	6.02872e-12
0.2779 	4.65838e-12
0.2786 	3.28804e-12
0.2793 	1.91771e-12
0.28 	5.478e-13
0.2807 	4.7293e-13
0.2814 	3.98158e-13
0.2821 	3.23599e-13
0.2828 	2.49041e-13
0.2835 	1.74483e-13
0.2842 	9.99246e-14
0.2849 	2.53663e-14
0.2856 	1.29791e-14
0.2863 	1.09269e-14
0.287 	8.8832e-15
0.2877 	6.83947e-15
0.2884 	4.79574e-15
0.2891 	2.75201e-15
0.2898 	7.08281e-16
0.2905 	1.12527e-16
0.2912 	9.49803e-17
0.2919 	7.75167e-17
0.2926 	6.00595e-17
0.2933 	4.26023e-17
0.294 	2.5145e-17
0.2947 	7.68778e-18
0.2954 	1.95266e-19
0.2961 	1.65423e-19
0.2968 	1.3571e-19
0.2975 	1.06031e-19
0.2982 	7.63532e-20
0.2989 	4.66751e-20
0.2996 	1.69969e-20
0.3003 	4.5734e-23
0.301 	3.88908e-23
0.3017 	3.20732e-23
0.3024 	2.52699e-23
0.3031 	1.84666e-23
0.3038 	1.16633e-23
0.3045 	4.86003e-24
0.3052 	2.86896e-27
0.3059 	2.44869e-27
0.3066 	2.02963e-27
0.3073 	1.61177e-27
0.308 	1.19391e-27
0.3087 	7.76052e-28
0.3094 	3.58192e-28
0.3101 	1.72985e-31
0.3108 	1.48167e-31
0.3115 	1.23398e-31
0.3122 	9.87191e-32
0.3129 	7.40396e-32
0.3136 	4.93602e-32
0.3143 	2.46808e-32
0.315 	1.03473e-35
0.3157 	8.88961e-36
0.3164 	7.43727e-36
0.3171 	5.99116e-36
0.3178 	4.54504e-36
0.3185 	3.09892e-36
0.3192 	1.65281e-36
0.3199 	2.06689e-37
0.3206 	5.49601e-40
0.3213 	4.61803e-40
0.322 	3.74437e-40
0.3227 	2.8707e-40
0.3234 	1.99704e-40
0.3241 	1.12337e-40
0.3248 	2.49707e-41
0.3255 	3.64838e-44
0.3262 	3.07844e-44
0.3269 	2.51121e-44
0.3276 	1.94418e-44
0.3283 	1.37715e-44
0.329 	8.10124e-45
0.3297 	2.43096e-45
0.3304 	2.67017e-48
0.3311 	2.26222e-48
0.3318 	1.85584e-48
0.3325 	1.4499e-48
0.3332 	1.04395e-48
0.3339 	6.37999e-49
0.3346 	2.3205e-49
0.3353 	2.13615e-52
0.336 	1.81681e-52
0.3367 	1.49844e-52
0.3374 	1.1806e-52
0.3381 	8.62769e-53
0.3388 	5.44933e-53
0.3395 	2.27097e-53
0.3402 	1.79741e-56
0.3409 	1.53437e-56
0.3416 	1.27192e-56
0.3423 	1.01007e-56
0.343 	7.48212e-57
0.3437 	4.86359e-57
0.3444 	2.24506e-57
0.3451 	1.5252e-60
0.3458 	1.30659e-60
0.3465 	1.08833e-60
0.3472 	8.70671e-61
0.3479 	6.53015e-61
0.3486 	4.35359e-61
0.3493 	2.17704e-61
0.35 	1.26881e-64
0.3507 	1.0904e-64
0.3514 	9.12412e-65
0.3521 	7.35006e-65
0.3528 	5.57599e-65
0.3535 	3.80192e-65
0.3542 	2.02786e-65
0.3549 	2.53794e-66
0.3556 	8.79538e-69
0.3563 	7.39178e-69
0.357 	5.99338e-69
0.3577 	4.59498e-69
0.3584 	3.19659e-69
0.3591 	1.79819e-69
0.3598 	3.99794e-70
0.3605 	6.82771e-73
0.3612 	5.76208e-73
0.3619 	4.70036e-73
0.3626 	3.63893e-73
0.3633 	2.57751e-73
0.364 	1.51608e-73
0.3647 	4.54658e-74
0.3654 	-1.89019e-77
0.3661 	-7.75349e-77
0.3668 	-9.61984e-77
0.3675 	-1.03961e-76
0.3682 	-1.11724e-76
0.3689 	-1.19487e-76
0.3696 	-1.2725e-76
0.3703 	-1.49191e-76
0.371 	-1.90077e-76
0.3717 	-2.04681e-76
0.3724 	-2.04682e-76
0.3731 	-2.04684e-76
0.3738 	-2.04685e-76
0.3745 	-2.04687e-76
0.3752 	-2.0572e-76
0.3759 	-2.09336e-76
0.3766 	-2.11145e-76
0.3773 	-2.11146e-76
0.378 	-2.11147e-76
0.3787 	-2.11148e-76
0.3794 	-2.11149e-76
0.3801 	-2.07402e-76
0.3808 	-1.811e-76
0.3815 	-1.64192e-76
0.3822 	-1.64193e-76
0.3829 	-1.64193e-76
0.3836 	-1.64193e-76
0.3843 	-1.64193e-76
0.385 	-1.64226e-76
0.3857 	-1.29651e-76
0.3864 	-1.02501e-76
0.3871 	-1.025e-76
0.3878 	-1.025e-76
0.3885 	-1.02499e-76
0.3892 	-1.02499e-76
0.3899 	-1.02498e-76
0.3906 	-7.89428e-77
0.3913 	-5.3414e-77
0.392 	-5.34132e-77
0.3927 	-5.34125e-77
0.3934 	-5.34117e-77
0.3941 	-5.3411e-77
0.3948 	-5.34103e-77
0.3955 	-4.15992e-77
0.3962 	-2.50558e-77
0.3969 	-2.38735e-77
0.3976 	-2.38729e-77
0.3983 	-2.38723e-77
0.399 	-2.38717e-77
0.3997 	-2.38711e-77
0.4004 	-1.92225e-77
0.4011 	-1.10827e-77
0.4018 	-9.33815e-78
0.4025 	-9.33779e-78
0.4032 	-9.33743e-78
0.4039 	-9.33707e-78
0.4046 	-9.3367e-78
0.4053 	-7.87583e-78
0.406 	-4.46477e-78
0.4067 	-3.24642e-78
0.4074 	-3.24624e-78
0.4081 	-3.24606e-78
0.4088 	-3.24589e-78
0.4095 	-3.24571e-78
0.4102 	-2.88914e-78
0.4109 	-1.64005e-78
0.4116 	-1.01547e-78
0.4123 	-1.01539e-78
0.413 	-1.01532e-78
0.4137 	-1.01524e-78
0.4144 	-1.01517e-78
0.4151 	-9.57122e-79
0.4158 	-5.50219e-79
0.4165 	-2.88629e-79
0.4172 	-2.88601e-79
0.4179 	-2.88574e-79
0.4186 	-2.88547e-79
0.4193 	-2.8852e-79
0.42 	-2.8855e-79
0.4207 	-1.69043e-79
0.4214 	-7.51539e-80
0.4221 	-7.51451e-80
0.4228 	-7.51363e-80
0.4235 	-7.51275e-80
0.4242 	-7.51186e-80
0.4249 	-7.51098e-80
0.4256 	-4.77257e-80
0.4263 	-1.80485e-80
0.427 	-1.80459e-80
0.4277 	-1.80433e-80
0.4284 	-1.80407e-80
0.4291 	-1.80382e-80
0.4298 	-1.80356e-80
0.4305 	-1.24308e-80
0.4312 	-4.58117e-81
0.4319 	-4.01985e-81
0.4326 	-4.01916e-81
0.4333 	-4.01847e-81
0.434 	-4.01778e-81
0.4347 	-4.0171e-81
0.4354 	-2.99898e-81
0.4361 	-1.2167e-81
0.4368 	-8.34651e-82
0.4375 	-8.34483e-82
0.4382 	-8.34315e-82
0.4389 	-8.34146e-82
0.4396 	-8.33978e-82
0.4403 	-6.72787e-82
0.441 	-2.96592e-82
0.4417 	-1.62212e-82
0.4424 	-1.62174e-82
0.4431 	-1.62136e-82
0.4438 	-1.62098e-82
0.4445 	-1.6206e-82
0.4452 	-1.40868e-82
0.4459 	-6.67025e-83
0.4466 	-2.96157e-83
0.4473 	-2.96077e-83
0.448 	-2.95996e-83
0.4487 	-2.95916e-83
0.4494 	-2.95836e-83
0.4501 	-2.76227e-83
0.4508 	-1.39109e-83
0.4515 	-5.09568e-84
0.4522 	-5.0941e-84
0.4529 	-5.09252e-84
0.4536 	-5.09094e-84
0.4543 	-5.08936e-84
0.455 	-5.08877e-84
0.4557 	-2.70303e-84
0.4564 	-8.28592e-85
0.4571 	-8.283e-85
0.4578 	-8.28008e-85
0.4585 	-8.27716e-85
0.4592 	-8.27424e-85
0.4599 	-8.27132e-85
0.4606 	-4.91431e-85
0.4613 	-1.27649e-85
0.462 	-1.27599e-85
0.4627 	-1.27548e-85
0.4634 	-1.27497e-85
0.4641 	-1.27446e-85
0.4648 	-1.27395e-85
0.4655 	-8.39099e-86
0.4662 	-2.3021e-86
0.4669 	-1.86641e-86
0.4676 	-1.86558e-86
0.4683 	-1.86474e-86
0.469 	-1.86391e-86
0.4697 	-1.86307e-86
0.4704 	-1.35e-86
0.4711 	-4.52223e-87
0.4718 	-2.5974e-87
0.4725 	-2.5961e-87
0.4732 	-2.5948e-87
0.4739 	-2.5935e-87
0.4746 	-2.5922e-87
0.4753 	-2.05255e-87
0.476 	-7.94099e-88
0.4767 	-3.44527e-88
0.4774 	-3.44335e-88
0.4781 	-3.44143e-88
0.4788 	-3.43951e-88
0.4795 	-3.4376e-88
0.4802 	-2.95674e-88
0.4809 	-1.27653e-88
0.4816 	-4.36287e-89
0.4823 	-4.36018e-89
0.483 	-4.35748e-89
0.4837 	-4.35479e-89
0.4844 	-4.35209e-89
0.4851 	-4.04474e-89
0.4858 	-1.90434e-89
0.4865 	-5.28245e-90
0.4872 	-5.27884e-90
0.4879 	-5.27523e-90
0.4886 	-5.27162e-90
0.4893 	-5.26801e-90
0.49 	-5.26541e-90
0.4907 	-2.6597e-90
0.4914 	-6.1236e-91
0.4921 	-6.11899e-91
0.4928 	-6.11437e-91
0.4935 	-6.10975e-91
0.4942 	-6.10513e-91
0.4949 	-6.10051e-91
0.4956 	-3.49912e-91
0.4963 	-6.80508e-92
0.497 	-6.79943e-92
0.4977 	-6.79378e-92
0.4984 	-6.78814e-92
0.4991 	-6.78249e-92
0.4998 	-6.77684e-92
0.5005 	-4.35612e-92
0.5012 	-9.67781e-93
0.5019 	-7.25142e-93
0.5026 	-7.24481e-93
0.5033 	-7.23819e-93
0.504 	-7.23157e-93
0.5047 	-7.22496e-93
0.5054 	-5.14982e-93
0.5061 	-1.52117e-93
0.5068 	-7.43016e-94
0.5075 	-7.42273e-94
0.5082 	-7.4153e-94
0.5089 	-7.40787e-94
0.5096 	-7.40044e-94
0.5103 	-5.79791e-94
0.511 	-2.06566e-94
0.5117 	-7.32204e-95
0.5124 	-7.31403e-95
0.5131 	-7.30602e-95
0.5138 	-7.29801e-95
0.5145 	-7.29e-95
0.5152 	-6.23102e-95
0.5159 	-2.54035e-95
0.5166 	-6.94592e-96
0.5173 	-6.93762e-96
0.518 	-6.92931e-96
0.5187 	-6.92101e-96
0.5194 	-6.91271e-96
0.5201 	-6.40503e-96
0.5208 	-2.89292e-96
0.5215 	-6.34846e-97
0.5222 	-6.34018e-97
0.5229 	-6.33191e-97
0.5236 	-6.32363e-97
0.5243 	-6.31535e-97
0.525 	-6.30826e-97
0.5257 	-3.089e-97
0.5264 	-5.59503e-98
0.5271 	-5.58708e-98
0.5278 	-5.57914e-98
0.5285 	-5.57119e-98
0.5292 	-5.56324e-98
0.5299 	-5.5553e-98
0.5306 	-3.11708e-98
0.5313 	-4.75842e-99
0.532 	-4.75107e-99
0.5327 	-4.74372e-99
0.5334 	-4.73636e-99
0.5341 	-4.72901e-99
0.5348 	-4.72166e-99
0.5355 	-2.98852e-99
0.5362 	-5.63944e-100
0.5369 	-3.90151e-100
0.5376 	-3.89495e-100
0.5383 	-3.88838e-100
0.539 	-3.88182e-100
0.5397 	-3.87526e-100
0.5404 	-2.73292e-100
0.5411 	-7.37612e-101
0.5418 	-3.09601e-101
0.5425 	-3.09036e-101
0.5432 	-3.0847e-101
0.5439 	-3.07905e-101
0.5446 	-3.07339e-101
0.5453 	-2.3908e-101
0.546 	-8.04427e-102
0.5467 	-2.37563e-102
0.5474 	-2.37092e-102
0.5481 	-2.36621e-102
0.5488 	-2.3615e-102
0.5495 	-2.35679e-102
0.5502 	-2.00546e-102
0.5509 	-7.86193e-103
0.5516 	-1.76368e-103
0.5523 	-1.75989e-103
0.553 	-1.7561e-103
0.5537 	-1.75231e-103
0.5544 	-1.74853e-103
0.5551 	-1.61608e-103
0.5558 	-7.09599e-104
0.5565 	-1.26758e-104
0.5572 	-1.26463e-104
0.5579 	-1.26168e-104
0.5586 	-1.25873e-104
0.5593 	-1.25578e-104
0.56 	-1.25307e-104
0.5607 	-6.00783e-105
0.5614 	-8.82424e-106
0.5621 	-8.80203e-106
0.5628 	-8.77982e-106
0.5635 	-8.75761e-106
0.5642 	-8.73539e-106
0.5649 	-8.71318e-106
0.5656 	-4.81578e-106
0.5663 	-5.95317e-107
0.567 	-5.93697e-107
0.5677 	-5.92076e-107
0.5684 	-5.90456e-107
0.5691 	-5.88836e-107
0.5698 	-5.87216e-107
0.5705 	-3.67684e-107
0.5712 	-6.08487e-108
0.5719 	-3.88255e-108
0.5726 	-3.8711e-108
0.5733 	-3.85965e-108
0.574 	-3.8482e-108
0.5747 	-3.83675e-108
0.5754 	-2.6851e-108
0.5761 	-6.77173e-109
0.5768 	-2.46286e-109
0.5775 	-2.45501e-109
0.5782 	-2.44717e-109
0.5789 	-2.43933e-109
0.5796 	-2.43148e-109
0.5803 	-1.8813e-109
0.581 	-6.07034e-110
0.5817 	-1.51605e-110
0.5824 	-1.51084e-110
0.5831 	-1.50564e-110
0.5838 	-1.50043e-110
0.5845 	-1.49522e-110
0.5852 	-1.26759e-110
0.5859 	-4.83041e-111
0.5866 	-9.05982e-112
0.5873 	-9.02625e-112
0.588 	-8.99269e-112
0.5887 	-8.95913e-112
0.5894 	-8.92557e-112
0.5901 	-8.22856e-112
0.5908 	-3.54038e-112
0.5915 	-5.25795e-113
0.5922 	-5.23697e-113
0.5929 	-5.21599e-113
0.5936 	-5.19501e-113
0.5943 	-5.17402e-113
0.595 	-5.154e-113
0.5957 	-2.43389e-113
0.5964 	-2.96454e-114
0.5971 	-2.95181e-114
0.5978 	-2.93908e-114
0.5985 	-2.92634e-114
0.5992 	-2.91361e-114
0.5999 	-2.90088e-114
0.6006 	-1.58576e-114
0.6013 	-1.62436e-115
0.602 	-1.61685e-115
0.6027 	-1.60935e-115
0.6034 	-1.60185e-115
0.6041 	-1.59435e-115
0.6048 	-1.58684e-115
0.6055 	-9.85575e-116
0.6062 	-1.46428e-116
0.6069 	-8.60901e-117
0.6076 	-8.56607e-117
0.6083 	-8.52314e-117
0.609 	-8.4802e-117
0.6097 	-8.43727e-117
0.6104 	-5.86902e-117
0.6111 	-1.4043e-117
0.6118 	-4.45703e-118
0.6125 	-4.43316e-118
0.6132 	-4.40929e-118
0.6139 	-4.38542e-118
0.6146 	-4.36156e-118
0.6153 	-3.35903e-118
0.616 	-1.04992e-118
0.6167 	-2.2441e-119
0.6174 	-2.2312e-119
0.6181 	-2.21831e-119
0.6188 	-2.20542e-119
0.6195 	-2.19253e-119
0.6202 	-1.85194e-119
0.6209 	-6.9081e-120
0.6216 	-1.09905e-120
0.6223 	-1.09229e-120
0.623 	-1.08552e-120
0.6237 	-1.07876e-120
0.6244 	-1.07199e-120
0.6251 	-9.85264e-121
0.6258 	-4.17487e-121
0.6265 	-5.23643e-122
0.6272 	-5.20193e-122
0.6279 	-5.16743e-122
0.6286 	-5.13294e-122
0.6293 	-5.09844e-122
0.63 	-5.0649e-122
0.6307 	-2.36465e-122
0.6314 	-2.42733e-123
0.6321 	-2.41024e-123
0.6328 	-2.39314e-123
0.6335 	-2.37604e-123
0.6342 	-2.35895e-123
0.6349 	-2.34185e-123
0.6356 	-1.26927e-123
0.6363 	-1.09476e-124
0.637 	-1.08653e-124
0.6377 	-1.07829e-124
0.6384 	-1.07006e-124
0.6391 	-1.06183e-124
0.6398 	-1.05359e-124
0.6405 	-6.50054e-125
0.6412 	-8.81488e-126
0.6419 	-4.76548e-126
0.6426 	-4.72694e-126
0.6433 	-4.6884e-126
0.644 	-4.64986e-126
0.6447 	-4.61132e-126
0.6454 	-3.1905e-126
0.6461 	-7.31627e-127
0.6468 	-2.03348e-127
0.6475 	-2.01595e-127
0.6482 	-1.99842e-127
0.6489 	-1.98089e-127
0.6496 	-1.96336e-127
0.6503 	-1.50517e-127
0.651 	-4.58664e-128
0.6517 	-8.44141e-129
0.6524 	-8.36393e-129
0.6531 	-8.28645e-129
0.6538 	-8.20897e-129
0.6545 	-8.13149e-129
0.6552 	-6.83991e-129
0.6559 	-2.50833e-129
0.6566 	-3.40883e-130
0.6573 	-3.37555e-130
0.658 	-3.34227e-130
0.6587 	-3.309e-130
0.6594 	-3.27572e-130
0.6601 	-2.99868e-130
0.6608 	-1.25521e-130
0.6615 	-1.33907e-131
0.6622 	-1.32519e-131
0.6629 	-1.3113e-131
0.6636 	-1.29741e-131
0.6643 	-1.28352e-131
0.665 	-1.26988e-131
0.6657 	-5.87457e-132
0.6664 	-5.11745e-133
0.6671 	-5.06111e-133
0.6678 	-5.00478e-133
0.6685 	-4.94844e-133
0.6692 	-4.8921e-133
0.6699 	-4.83576e-133
0.6706 	-2.60227e-133
0.6713 	-1.90317e-134
0.672 	-1.88096e-134
0.6727 	-1.85874e-134
0.6734 	-1.83652e-134
0.6741 	-1.8143e-134
0.6748 	-1.79208e-134
0.6755 	-1.09917e-134
0.6762 	-1.37547e-135
0.6769 	-6.80679e-136
0.6776 	-6.72154e-136
0.6783 	-6.63628e-136
0.679 	-6.55102e-136
0.6797 	-6.46576e-136
0.6804 	-4.45025e-136
0.6811 	-9.85142e-137
0.6818 	-2.40115e-137
0.6825 	-2.36928e-137
0.6832 	-2.33741e-137
0.6839 	-2.30554e-137
0.6846 	-2.27368e-137
0.6853 	-1.73448e-137
0.686 	-5.17942e-138
0.6867 	-8.27178e-139
0.6874 	-8.15551e-139
0.6881 	-8.03925e-139
0.6888 	-7.92298e-139
0.6895 	-7.80671e-139
0.6902 	-6.53396e-139
0.6909 	-2.3654e-139
0.6916 	-2.79051e-140
0.6923 	-2.74899e-140
0.693 	-2.70747e-140
0.6937 	-2.66595e-140
0.6944 	-2.62444e-140
0.6951 	-2.39595e-140
0.6958 	-1.04267e-140
0.6965 	-1.72205e-141
0.6972 	-1.70797e-141
0.6979 	-1.69388e-141
0.6986 	-1.6798e-141
0.6993 	-1.66572e-141
0.7 	-1.65199e-141
