0 	1
0.0007 	1
0.0014 	1
0.0021 	1
0.0028 	1
0.0035 	1
0.0042 	1
0.0049 	1
0.0056 	1
0.0063 	1
0.007 	1
0.0077 	1
0.0084 	1
0.0091 	1
0.0098 	1
0.0105 	1
0.0112 	1
0.0119 	1
0.0126 	1
0.0133 	1
0.014 	1
0.0147 	1
0.0154 	1
0.0161 	1
0.0168 	1
0.0175 	1
0.0182 	1
0.0189 	1
0.0196 	1
0.0203 	1
0.021 	1
0.0217 	1
0.0224 	1
0.0231 	1
0.0238 	1
0.0245 	1
0.0252 	1
0.0259 	1
0.0266 	1
0.0273 	1
0.028 	1
0.0287 	1
0.0294 	1
0.0301 	1
0.0308 	1
0.0315 	1
0.0322 	1
0.0329 	1
0.0336 	1
0.0343 	1
0.035 	1
0.0357 	1
0.0364 	1
0.0371 	1
0.0378 	1
0.0385 	1
0.0392 	1
0.0399 	1
0.0406 	1
0.0413 	1
0.042 	1
0.0427 	1
0.0434 	1
0.0441 	1
0.0448 	1
0.0455 	1
0.0462 	1
0.0469 	1
0.0476 	1
0.0483 	1
0.049 	1
0.0497 	1
0.0504 	1
0.0511 	1
0.0518 	1
0.0525 	1
0.0532 	1
0.0539 	1
0.0546 	1
0.0553 	1
0.056 	1
0.0567 	1
0.0574 	1
0.0581 	1
0.0588 	1
0.0595 	1
0.0602 	1
0.0609 	1
0.0616 	1
0.0623 	1
0.063 	1
0.0637 	1
0.0644 	1
0.0651 	1
0.0658 	1
0.0665 	1
0.0672 	1
0.0679 	1
0.0686 	1
0.0693 	1
0.07 	1
0.0707 	1
0.0714 	1
0.0721 	1
0.0728 	1
0.0735 	1
0.0742 	1
0.0749 	1
0.0756 	1
0.0763 	1
0.077 	1
0.0777 	1
0.0784 	1
0.0791 	1
0.0798 	1
0.0805 	1
0.0812 	1
0.0819 	1
0.0826 	1
0.0833 	1
0.084 	1
0.0847 	1
0.0854 	1
0.0861 	1
0.0868 	1
0.0875 	1
0.0882 	1
0.0889 	1
0.0896 	1
0.0903 	1
0.091 	1
0.0917 	1
0.0924 	1
0.0931 	1
0.0938 	1
0.0945 	1
0.0952 	1
0.0959 	1
0.0966 	1
0.0973 	1
0.098 	1
0.0987 	1
0.0994 	1
0.1001 	1
0.1008 	1
0.1015 	1
0.1022 	1
0.1029 	1
0.1036 	1
0.1043 	1
0.105 	1
0.1057 	1
0.1064 	1
0.1071 	1
0.1078 	1
0.1085 	1
0.1092 	1
0.1099 	1
0.1106 	1
0.1113 	1
0.112 	1
0.1127 	1
0.1134 	1
0.1141 	1
0.1148 	1
0.1155 	1
0.1162 	1
0.1169 	1
0.1176 	1
0.1183 	1
0.119 	1
0.1197 	1
0.1204 	1
0.1211 	1
0.1218 	1
0.1225 	1
0.1232 	1
0.1239 	1
0.1246 	1
0.1253 	1
0.126 	1
0.1267 	1
0.1274 	1
0.1281 	1
0.1288 	1
0.1295 	1
0.1302 	1
0.1309 	1
0.1316 	1
0.1323 	1
0.133 	1
0.1337 	1
0.1344 	1
0.1351 	1
0.1358 	1
0.1365 	1
0.1372 	1
0.1379 	1
0.1386 	1
0.1393 	1
0.14 	1
0.1407 	1
0.1414 	1
0.1421 	1
0.1428 	1
0.1435 	1
0.1442 	1
0.1449 	1
0.1456 	1
0.1463 	1
0.147 	1
0.1477 	1
0.1484 	1
0.1491 	1
0.1498 	1
0.1505 	1
0.1512 	1
0.1519 	1
0.1526 	1
0.1533 	1
0.154 	1
0.1547 	1
0.1554 	1
0.1561 	1
0.1568 	1
0.1575 	1
0.1582 	1
0.1589 	1
0.1596 	1
0.1603 	1
0.161 	1
0.1617 	1
0.1624 	1
0.1631 	1
0.1638 	1
0.1645 	1
0.1652 	1
0.1659 	1
0.1666 	1
0.1673 	1
0.168 	1
0.1687 	1
0.1694 	1
0.1701 	1
0.1708 	1
0.1715 	1
0.1722 	1
0.1729 	1
0.1736 	1
0.1743 	1
0.175 	1
0.1757 	1
0.1764 	1
0.1771 	1
0.1778 	1
0.1785 	1
0.1792 	1
0.1799 	1
0.1806 	1
0.1813 	1
0.182 	1
0.1827 	1
0.1834 	1
0.1841 	1
0.1848 	1
0.1855 	1
0.1862 	1
0.1869 	1
0.1876 	1
0.1883 	1
0.189 	1
0.1897 	1
0.1904 	1
0.1911 	1
0.1918 	1
0.1925 	1
0.1932 	1
0.1939 	1
0.1946 	1
0.1953 	1
0.196 	1
0.1967 	1
0.1974 	1
0.1981 	1
0.1988 	1
0.1995 	1
0.2002 	1
0.2009 	1
0.2016 	1
0.2023 	1
0.203 	1
0.2037 	1
0.2044 	1
0.2051 	1
0.2058 	1
0.2065 	1
0.2072 	1
0.2079 	1
0.2086 	1
0.2093 	1
0.21 	1
0.2107 	0.999999
0.2114 	0.999998
0.2121 	0.999997
0.2128 	0.999996
0.2135 	0.999995
0.2142 	0.999994
0.2149 	0.999993
0.2156 	0.999793
0.2163 	0.99956
0.217 	0.999327
0.2177 	0.999094
0.2184 	0.998861
0.2191 	0.998628
0.2198 	0.998395
0.2205 	0.993099
0.2212 	0.985776
0.2219 	0.978453
0.2226 	0.971131
0.2233 	0.963808
0.224 	0.956485
0.2247 	0.949163
0.2254 	0.920731
0.2261 	0.876464
0.2268 	0.832198
0.2275 	0.787931
0.2282 	0.743665
0.2289 	0.699399
0.2296 	0.655132
0.2303 	0.603577
0.231 	0.542313
0.2317 	0.481048
0.2324 	0.419784
0.2331 	0.358519
0.2338 	0.297254
0.2345 	0.23599
0.2352 	0.18496
0.2359 	0.159519
0.2366 	0.134079
0.2373 	0.108638
0.238 	0.0831965
0.2387 	0.0577554
0.2394 	0.0323143
0.2401 	0.0103084
0.2408 	0.00889985
0.2415 	0.0074913
0.2422 	0.00608273
0.2429 	0.00467417
0.2436 	0.00326561
0.2443 	0.00185704
0.245 	0.0004486
0.2457 	0.000389087
0.2464 	0.00032958
0.2471 	0.000270074
0.2478 	0.000210568
0.2485 	0.000151063
0.2492 	9.15567e-05
0.2499 	3.20509e-05
0.2506 	2.08677e-05
0.2513 	1.77326e-05
0.252 	1.45979e-05
0.2527 	1.14631e-05
0.2534 	8.3284e-06
0.2541 	5.19366e-06
0.2548 	2.05892e-06
0.2555 	1.05253e-06
0.2562 	8.97131e-07
0.2569 	7.41763e-07
0.2576 	5.86397e-07
0.2583 	4.31031e-07
0.259 	2.75666e-07
0.2597 	1.203e-07
0.2604 	4.96078e-08
0.2611 	4.23978e-08
0.2618 	3.51905e-08
0.2625 	2.79839e-08
0.2632 	2.07774e-08
0.2639 	1.35708e-08
0.2646 	6.36428e-09
0.2653 	2.11644e-09
0.266 	1.81206e-09
0.2667 	1.50783e-09
0.2674 	1.20369e-09
0.2681 	8.99548e-10
0.2688 	5.95404e-10
0.2695 	2.91261e-10
0.2702 	7.11499e-11
0.2709 	6.10232e-11
0.2716 	5.09018e-11
0.2723 	4.07858e-11
0.273 	3.06698e-11
0.2737 	2.05538e-11
0.2744 	1.04378e-11
0.2751 	1.73279e-12
0.2758 	1.48721e-12
0.2765 	1.24174e-12
0.2772 	9.9645e-13
0.2779 	7.51163e-13
0.2786 	5.05876e-13
0.2793 	2.60589e-13
0.28 	1.53273e-14
0.2807 	1.31829e-14
0.2814 	1.10394e-14
0.2821 	8.89792e-15
0.2828 	6.75648e-15
0.2835 	4.61504e-15
0.2842 	2.4736e-15
0.2849 	3.32166e-16
0.2856 	2.32895e-17
0.2863 	1.95829e-17
0.287 	1.588e-17
0.2877 	1.21771e-17
0.2884 	8.47427e-18
0.2891 	4.77139e-18
0.2898 	1.06852e-18
0.2905 	9.846e-21
0.2912 	8.31394e-21
0.2919 	6.78326e-21
0.2926 	5.25269e-21
0.2933 	3.72213e-21
0.294 	2.19156e-21
0.2947 	6.60993e-22
0.2954 	4.7823e-24
0.2961 	4.05444e-24
0.2968 	3.32673e-24
0.2975 	2.59908e-24
0.2982 	1.87142e-24
0.2989 	1.14376e-24
0.2996 	4.16103e-25
0.3003 	3.54307e-28
0.301 	3.01555e-28
0.3017 	2.48792e-28
0.3024 	1.96022e-28
0.3031 	1.43252e-28
0.3038 	9.04825e-29
0.3045 	3.77126e-29
0.3052 	2.45986e-32
0.3059 	2.10142e-32
0.3066 	1.7428e-32
0.3073 	1.38402e-32
0.308 	1.02523e-32
0.3087 	6.66447e-33
0.3094 	3.07662e-33
0.3101 	1.67752e-36
0.3108 	1.43818e-36
0.3115 	1.1987e-36
0.3122 	9.58978e-37
0.3129 	7.19255e-37
0.3136 	4.79532e-37
0.3143 	2.39808e-37
0.315 	1.11747e-40
0.3157 	9.61277e-41
0.3164 	8.05025e-41
0.3171 	6.48503e-41
0.3178 	4.91981e-41
0.3185 	3.35458e-41
0.3192 	1.78936e-41
0.3199 	2.24135e-42
0.3206 	6.23275e-45
0.3213 	5.24338e-45
0.322 	4.25145e-45
0.3227 	3.25952e-45
0.3234 	2.26759e-45
0.3241 	1.27566e-45
0.3248 	2.83728e-46
0.3255 	3.89327e-49
0.3262 	3.28937e-49
0.3269 	2.68358e-49
0.3276 	2.07765e-49
0.3283 	1.47172e-49
0.329 	8.65795e-50
0.3297 	2.59867e-50
0.3304 	2.32669e-53
0.3311 	1.97376e-53
0.3318 	1.61975e-53
0.3325 	1.26545e-53
0.3332 	9.11153e-54
0.3339 	5.56854e-54
0.3346 	2.02556e-54
0.3353 	1.32244e-57
0.336 	1.12617e-57
0.3367 	9.29355e-58
0.3374 	7.3223e-58
0.3381 	5.35105e-58
0.3388 	3.3798e-58
0.3395 	1.40855e-58
0.3402 	7.12108e-62
0.3409 	6.08653e-62
0.3416 	5.04947e-62
0.3423 	4.00993e-62
0.343 	2.97038e-62
0.3437 	1.93083e-62
0.3444 	8.91286e-63
0.3451 	3.62727e-66
0.3458 	3.11116e-66
0.3465 	2.5941e-66
0.3472 	2.0753e-66
0.3479 	1.5565e-66
0.3486 	1.03771e-66
0.3493 	5.18909e-67
0.35 	1.74837e-70
0.3507 	1.5046e-70
0.3514 	1.26057e-70
0.3521 	1.01547e-70
0.3528 	7.70365e-71
0.3535 	5.25264e-71
0.3542 	2.80164e-71
0.3549 	3.50629e-72
0.3556 	6.89788e-75
0.3563 	5.80552e-75
0.357 	4.70722e-75
0.3577 	3.60891e-75
0.3584 	2.51061e-75
0.3591 	1.41231e-75
0.3598 	3.14e-76
0.3605 	3.0056e-79
0.3612 	2.54045e-79
0.3619 	2.07265e-79
0.3626 	1.60465e-79
0.3633 	1.13665e-79
0.364 	6.6865e-80
0.3647 	2.00649e-80
0.3654 	1.24844e-83
0.3661 	1.05945e-83
0.3668 	8.69505e-84
0.3675 	6.79307e-84
0.3682 	4.89109e-84
0.3689 	2.98911e-84
0.3696 	1.08713e-84
0.3703 	4.95762e-88
0.371 	4.22308e-88
0.3717 	3.48546e-88
0.3724 	2.74615e-88
0.3731 	2.00683e-88
0.3738 	1.26751e-88
0.3745 	5.28188e-89
0.3752 	1.88696e-92
0.3759 	1.6132e-92
0.3766 	1.33854e-92
0.3773 	1.06296e-92
0.378 	7.87388e-93
0.3787 	5.11815e-93
0.3794 	2.36241e-93
0.3801 	6.89854e-97
0.3808 	5.91811e-97
0.3815 	4.93531e-97
0.3822 	3.94827e-97
0.3829 	2.96123e-97
0.3836 	1.97419e-97
0.3843 	9.87155e-98
0.385 	2.425e-101
0.3857 	2.0872e-101
0.3864 	1.74894e-101
0.3871 	1.40888e-101
0.3878 	1.06881e-101
0.3885 	7.28747e-102
0.3892 	3.88682e-102
0.3899 	4.86172e-103
0.3906 	7.08397e-106
0.3913 	5.96303e-106
0.392 	4.83491e-106
0.3927 	3.70679e-106
0.3934 	2.57867e-106
0.3941 	1.45055e-106
0.3948 	3.2243e-107
0.3955 	2.31553e-110
0.3962 	1.95741e-110
0.3969 	1.59698e-110
0.3976 	1.23638e-110
0.3983 	8.7578e-111
0.399 	5.15178e-111
0.3997 	1.54576e-111
0.4004 	7.29226e-115
0.4011 	6.18876e-115
0.4018 	5.0793e-115
0.4025 	3.96823e-115
0.4032 	2.85715e-115
0.4039 	1.74607e-115
0.4046 	6.34989e-116
0.4053 	2.19778e-119
0.406 	1.87993e-119
0.4067 	1.55423e-119
0.4074 	1.22417e-119
0.4081 	8.94106e-120
0.4088 	5.64042e-120
0.4095 	2.33978e-120
0.4102 	-1.47622e-122
0.4109 	-5.58536e-123
0.4116 	-1.04349e-123
0.4123 	-1.13656e-123
0.413 	-1.22963e-123
0.4137 	-1.32269e-123
0.4144 	-1.41576e-123
0.4151 	-1.38547e-123
0.4158 	-6.14386e-124
0.4165 	-1.18634e-124
0.4172 	-1.18478e-124
0.4179 	-1.18322e-124
0.4186 	-1.18165e-124
0.4193 	-1.18009e-124
0.42 	-1.17862e-124
0.4207 	-5.68541e-125
0.4214 	-8.91748e-126
0.4221 	-8.90431e-126
0.4228 	-8.89114e-126
0.4235 	-8.87797e-126
0.4242 	-8.8648e-126
0.4249 	-8.85163e-126
0.4256 	-4.90908e-126
0.4263 	-6.39267e-127
0.427 	-6.38227e-127
0.4277 	-6.37186e-127
0.4284 	-6.36146e-127
0.4291 	-6.35105e-127
0.4298 	-6.34065e-127
0.4305 	-3.97785e-127
0.4312 	-6.73469e-128
0.4319 	-4.36712e-128
0.4326 	-4.35926e-128
0.4333 	-4.3514e-128
0.434 	-4.34354e-128
0.4347 	-4.33568e-128
0.4354 	-3.03769e-128
0.4361 	-7.71536e-129
0.4368 	-2.85486e-129
0.4375 	-2.84918e-129
0.4382 	-2.8435e-129
0.4389 	-2.83782e-129
0.4396 	-2.83214e-129
0.4403 	-2.19299e-129
0.441 	-7.08754e-130
0.4417 	-1.78416e-130
0.4424 	-1.78022e-130
0.4431 	-1.77628e-130
0.4438 	-1.77234e-130
0.4445 	-1.76841e-130
0.4452 	-1.5003e-130
0.4459 	-5.71312e-131
0.4466 	-1.06688e-131
0.4473 	-1.06426e-131
0.448 	-1.06164e-131
0.4487 	-1.05902e-131
0.4494 	-1.0564e-131
0.4501 	-9.74787e-132
0.4508 	-4.18647e-132
0.4515 	-6.10685e-133
0.4522 	-6.0901e-133
0.4529 	-6.07334e-133
0.4536 	-6.05658e-133
0.4543 	-6.03983e-133
0.455 	-6.02358e-133
0.4557 	-2.83802e-133
0.4564 	-3.34902e-134
0.4571 	-3.33871e-134
0.4578 	-3.32839e-134
0.4585 	-3.31807e-134
0.4592 	-3.30776e-134
0.4599 	-3.29744e-134
0.4606 	-1.79855e-134
0.4613 	-1.76032e-135
0.462 	-1.7542e-135
0.4627 	-1.74807e-135
0.4634 	-1.74195e-135
0.4641 	-1.73583e-135
0.4648 	-1.72971e-135
0.4655 	-1.07234e-135
0.4662 	-1.54293e-136
0.4669 	-8.83929e-137
0.4676 	-8.80422e-137
0.4683 	-8.76914e-137
0.469 	-8.73407e-137
0.4697 	-8.699e-137
0.4704 	-6.04281e-137
0.4711 	-1.41961e-137
0.4718 	-4.27395e-138
0.4725 	-4.25453e-138
0.4732 	-4.23511e-138
0.4739 	-4.21568e-138
0.4746 	-4.19626e-138
0.4753 	-3.22875e-138
0.476 	-9.96349e-139
0.4767 	-1.98394e-139
0.4774 	-1.97353e-139
0.4781 	-1.96312e-139
0.4788 	-1.95271e-139
0.4795 	-1.9423e-139
0.4802 	-1.63961e-139
0.4809 	-6.05701e-140
0.4816 	-8.84761e-141
0.4823 	-8.79349e-141
0.483 	-8.73938e-141
0.4837 	-8.68527e-141
0.4844 	-8.63116e-141
0.4851 	-7.92903e-141
0.4858 	-3.3341e-141
0.4865 	-3.79243e-142
0.4872 	-3.76511e-142
0.4879 	-3.7378e-142
0.4886 	-3.71048e-142
0.4893 	-3.68317e-142
0.49 	-3.65619e-142
0.4907 	-1.69644e-142
0.4914 	-1.56391e-143
0.4921 	-1.5505e-143
0.4928 	-1.53708e-143
0.4935 	-1.52367e-143
0.4942 	-1.51025e-143
0.4949 	-1.49684e-143
0.4956 	-8.07246e-144
0.4963 	-6.20884e-145
0.497 	-6.14465e-145
0.4977 	-6.08045e-145
0.4984 	-6.01625e-145
0.4991 	-5.95205e-145
0.4998 	-5.88785e-145
0.5005 	-3.61697e-145
0.5012 	-4.62743e-146
0.5019 	-2.34656e-146
0.5026 	-2.31656e-146
0.5033 	-2.28657e-146
0.504 	-2.25657e-146
0.5047 	-2.22657e-146
0.5054 	-1.53346e-146
0.5061 	-3.42699e-147
0.5068 	-8.64583e-148
0.5075 	-8.50871e-148
0.5082 	-8.37159e-148
0.5089 	-8.23446e-148
0.5096 	-8.09734e-148
0.5103 	-6.16981e-148
0.511 	-1.85355e-148
0.5117 	-3.08075e-149
0.5124 	-3.01932e-149
0.5131 	-2.9579e-149
0.5138 	-2.89648e-149
0.5145 	-2.83505e-149
0.5152 	-2.36204e-149
0.5159 	-8.59227e-150
0.5166 	-1.06472e-150
0.5173 	-1.0377e-150
0.518 	-1.01068e-150
0.5187 	-9.83661e-151
0.5194 	-9.56641e-151
0.5201 	-8.61777e-151
0.5208 	-3.59297e-151
0.5215 	-3.58563e-152
0.5222 	-3.46873e-152
0.5229 	-3.35184e-152
0.5236 	-3.23494e-152
0.5243 	-3.11804e-152
0.525 	-3.00152e-152
0.5257 	-1.38753e-152
0.5264 	-1.18417e-153
0.5271 	-1.13434e-153
0.5278 	-1.08451e-153
0.5285 	-1.03468e-153
0.5292 	-9.84852e-154
0.5299 	-9.35024e-154
0.5306 	-5.01198e-154
0.5313 	-3.86937e-155
0.532 	-3.65981e-155
0.5327 	-3.45025e-155
0.5334 	-3.24069e-155
0.5341 	-3.03114e-155
0.5348 	-2.82158e-155
0.5355 	-1.70752e-155
0.5362 	-2.31327e-156
0.5369 	-1.17802e-156
0.5376 	-1.09097e-156
0.5383 	-1.00393e-156
0.539 	-9.16884e-157
0.5397 	-8.2984e-157
0.5404 	-5.52137e-157
0.5411 	-1.31311e-157
0.5418 	-3.83265e-158
0.5425 	-3.47527e-158
0.5432 	-3.1179e-158
0.5439 	-2.76052e-158
0.5446 	-2.40315e-158
0.5453 	-1.70424e-158
0.546 	-5.49456e-159
0.5467 	-1.27705e-159
0.5474 	-1.13193e-159
0.5481 	-9.8682e-160
0.5488 	-8.41707e-160
0.5495 	-6.96594e-160
0.5502 	-5.05626e-160
0.5509 	-1.99801e-160
0.5516 	-4.39742e-161
0.5523 	-3.81461e-161
0.553 	-3.23179e-161
0.5537 	-2.64897e-161
0.5544 	-2.06615e-161
0.5551 	-1.45464e-161
0.5558 	-6.69719e-162
0.5565 	-1.56857e-162
0.5572 	-1.33706e-162
0.5579 	-1.10555e-162
0.5586 	-8.74044e-163
0.5593 	-6.42535e-163
0.56 	-4.11199e-163
0.5607 	-2.14269e-163
0.5614 	-5.76828e-164
0.5621 	-4.85892e-164
0.5628 	-3.94956e-164
0.5635 	-3.04019e-164
0.5642 	-2.13083e-164
0.5649 	-1.22147e-164
0.5656 	-6.72912e-165
0.5663 	-2.16666e-165
0.567 	-1.81354e-165
0.5677 	-1.46042e-165
0.5684 	-1.10729e-165
0.5691 	-7.54169e-166
0.5698 	-4.01046e-166
0.5705 	-2.12645e-166
0.5712 	-9.00524e-167
0.5719 	-6.87155e-167
0.5726 	-5.51675e-167
0.5733 	-4.16195e-167
0.574 	-2.80714e-167
0.5747 	-1.45234e-167
0.5754 	-6.89508e-168
0.5761 	-3.70303e-168
0.5768 	-2.61574e-168
0.5775 	-2.10249e-168
0.5782 	-1.58923e-168
0.5789 	-1.07597e-168
0.5796 	-5.62705e-169
0.5803 	-2.3159e-169
0.581 	-1.4317e-169
0.5817 	-9.92554e-170
0.5824 	-8.0066e-170
0.5831 	-6.08766e-170
0.5838 	-4.16871e-170
0.5845 	-2.24977e-170
0.5852 	-8.04074e-171
0.5859 	-5.40597e-171
0.5866 	-3.73476e-171
0.5873 	-3.0271e-171
0.588 	-2.31944e-171
0.5887 	-1.61178e-171
0.5894 	-9.04117e-172
0.5901 	-2.85679e-172
0.5908 	-2.01931e-172
0.5915 	-1.38904e-172
0.5922 	-1.13174e-172
0.5929 	-8.74445e-173
0.5936 	-6.1715e-173
0.5943 	-3.59855e-173
0.595 	-1.02676e-173
0.5957 	-7.47907e-174
0.5964 	-5.09697e-174
0.5971 	-4.17492e-174
0.5978 	-3.25287e-174
0.5985 	-2.33082e-174
0.5992 	-1.40877e-174
0.5999 	-4.86716e-175
0.6006 	-2.74273e-175
0.6013 	-1.84368e-175
0.602 	-1.51801e-175
0.6027 	-1.19234e-175
0.6034 	-8.66665e-176
0.6041 	-5.40993e-176
0.6048 	-2.15321e-176
0.6055 	-9.93434e-177
0.6062 	-6.71843e-177
0.6069 	-5.43627e-177
0.6076 	-4.30286e-177
0.6083 	-3.16945e-177
0.609 	-2.03604e-177
0.6097 	-9.02633e-178
0.6104 	-3.54687e-178
0.6111 	-2.45578e-178
0.6118 	-1.91666e-178
0.6125 	-1.52809e-178
0.6132 	-1.13952e-178
0.6139 	-7.50946e-179
0.6146 	-3.62374e-179
0.6153 	-1.24681e-179
0.616 	-8.80434e-180
0.6167 	-6.65223e-180
0.6174 	-5.33995e-180
0.6181 	-4.02768e-180
0.6188 	-2.7154e-180
0.6195 	-1.40313e-180
0.6202 	-4.31268e-181
0.6209 	-3.09827e-181
0.6216 	-2.27278e-181
0.6223 	-1.83623e-181
0.623 	-1.39968e-181
0.6237 	-9.63121e-182
0.6244 	-5.26567e-182
0.6251 	-1.46766e-182
0.6258 	-1.07075e-182
0.6265 	-7.64496e-183
0.6272 	-6.21421e-183
0.6279 	-4.78346e-183
0.6286 	-3.35271e-183
0.6293 	-1.92196e-183
0.63 	-4.91756e-184
0.6307 	-3.63555e-184
0.6314 	-2.53201e-184
0.6321 	-2.07002e-184
0.6328 	-1.60802e-184
0.6335 	-1.14603e-184
0.6342 	-6.84041e-185
0.6349 	-2.2205e-185
0.6356 	-1.21324e-185
0.6363 	-8.2586e-186
0.637 	-6.78861e-186
0.6377 	-5.31862e-186
0.6384 	-3.84863e-186
0.6391 	-2.37863e-186
0.6398 	-9.08642e-187
0.6405 	-3.98127e-187
0.6412 	-2.71125e-187
0.6419 	-2.19246e-187
0.6426 	-1.73145e-187
0.6433 	-1.27044e-187
0.644 	-8.09432e-188
0.6447 	-3.48423e-188
0.6454 	-1.28522e-188
0.6461 	-8.93439e-189
0.6468 	-6.97496e-189
0.6475 	-5.54964e-189
0.6482 	-4.12433e-189
0.6489 	-2.69901e-189
0.6496 	-1.2737e-189
0.6503 	-4.08343e-190
0.651 	-2.89156e-190
0.6517 	-2.18654e-190
0.6524 	-1.75198e-190
0.6531 	-1.31742e-190
0.6538 	-8.82866e-191
0.6545 	-4.48309e-191
0.6552 	-1.27751e-191
0.6559 	-9.19841e-192
0.6566 	-6.75661e-192
0.6573 	-5.44968e-192
0.658 	-4.14276e-192
0.6587 	-2.83583e-192
0.6594 	-1.52891e-192
0.6601 	-3.93738e-193
0.6608 	-2.87823e-193
0.6615 	-2.05883e-193
0.6622 	-1.67097e-193
0.6629 	-1.28312e-193
0.6636 	-8.95264e-194
0.6643 	-5.07408e-194
0.665 	-1.19683e-194
0.6657 	-8.86464e-195
0.6664 	-6.18861e-195
0.6671 	-5.05242e-195
0.6678 	-3.91623e-195
0.6685 	-2.78004e-195
0.6692 	-1.64385e-195
0.6699 	-5.07666e-196
0.6706 	-2.6891e-196
0.6713 	-1.83579e-196
0.672 	-1.50712e-196
0.6727 	-1.17845e-196
0.6734 	-8.49787e-197
0.6741 	-5.21119e-197
0.6748 	-1.92451e-197
0.6755 	-8.03908e-198
0.6762 	-5.49096e-198
0.6769 	-4.4369e-198
0.6776 	-3.49776e-198
0.6783 	-2.55862e-198
0.679 	-1.61948e-198
0.6797 	-6.80344e-199
0.6804 	-2.36962e-199
0.6811 	-1.65172e-199
0.6818 	-1.28955e-199
0.6825 	-1.0244e-199
0.6832 	-7.59249e-200
0.6839 	-4.94096e-200
0.6846 	-2.28944e-200
0.6853 	-6.88973e-201
0.686 	-4.89072e-201
0.6867 	-3.70115e-201
0.6874 	-2.96127e-201
0.6881 	-2.22139e-201
0.6888 	-1.4815e-201
0.6895 	-7.4162e-202
0.6902 	-1.97519e-202
0.6909 	-1.42516e-202
0.6916 	-1.04815e-202
0.6923 	-8.44142e-203
0.693 	-6.40137e-203
0.6937 	-4.36132e-203
0.6944 	-2.32127e-203
0.6951 	-5.51264e-204
0.6958 	-3.99563e-204
0.6965 	-2.82436e-204
0.6972 	-2.27542e-204
0.6979 	-1.72648e-204
0.6986 	-1.17755e-204
0.6993 	-6.2861e-205
0.7 	-7.98329e-206
