0 	1
0.0007 	1
0.0014 	1
0.0021 	1
0.0028 	1
0.0035 	1
0.0042 	1
0.0049 	1
0.0056 	1
0.0063 	1
0.007 	1
0.0077 	1
0.0084 	1
0.0098 	1
0.0105 	1
0.0112 	1
0.0119 	1
0.0126 	1
0.0133 	1
0.014 	1
0.0147 	1
0.0154 	1
0.0161 	1
0.0168 	1
0.0175 	1
0.0182 	1
0.0189 	1
0.0196 	1
0.0203 	1
0.0217 	1
0.0224 	1
0.0231 	1
0.0238 	1
0.0245 	1
0.0252 	1
0.0259 	1
0.0266 	1
0.0273 	1
0.028 	1
0.0287 	1
0.0294 	1
0.0301 	1
0.0308 	1
0.0315 	1
0.0322 	1
0.0329 	1
0.0336 	1
0.0343 	1
0.035 	1
0.0357 	1
0.0364 	1
0.0371 	1
0.0378 	1
0.0385 	1
0.0392 	1
0.0399 	1
0.0406 	1
0.0413 	1
0.042 	1
0.0427 	1
0.0434 	1
0.0441 	1
0.0448 	1
0.0455 	1
0.0469 	1
0.0476 	1
0.0483 	1
0.049 	1
0.0497 	1
0.0504 	1
0.0511 	1
0.0518 	1
0.0525 	1
0.0532 	1
0.0539 	1
0.0546 	1
0.0553 	1
0.056 	1
0.0567 	1
0.0574 	1
0.0581 	1
0.0588 	1
0.0595 	1
0.0602 	1
0.0609 	1
0.0616 	1
0.0623 	1
0.063 	1
0.0637 	1
0.0644 	1
0.0651 	1
0.0658 	1
0.0672 	1
0.0679 	1
0.0686 	1
0.0693 	1
0.07 	1
0.0707 	1
0.0714 	1
0.0721 	1
0.0728 	1
0.0735 	1
0.0742 	1
0.0749 	1
0.0756 	1
0.0763 	1
0.077 	1
0.0784 	1
0.0791 	1
0.0798 	1
0.0805 	1
0.0812 	1
0.0819 	1
0.0826 	1
0.0833 	1
0.084 	1
0.0847 	1
0.0854 	1
0.0861 	1
0.0868 	1
0.0875 	1
0.0882 	1
0.0889 	1
0.0896 	1
0.0903 	1
0.091 	1
0.0917 	1
0.0924 	1
0.0931 	1
0.0938 	1
0.0945 	1
0.0952 	1
0.0959 	1
0.0966 	1
0.0973 	1
0.098 	1
0.0987 	1
0.0994 	1
0.1001 	1
0.1008 	1
0.1015 	1
0.1022 	1
0.1029 	1
0.1036 	1
0.1043 	1
0.105 	1
0.1057 	1
0.1064 	1
0.1071 	1
0.1078 	1
0.1085 	1
0.1092 	1
0.1099 	1
0.1106 	1
0.1113 	1
0.112 	1
0.1127 	1
0.1134 	1
0.1141 	1
0.1148 	1
0.1155 	1
0.1162 	1
0.1169 	1
0.1176 	1
0.1183 	1
0.119 	1
0.1197 	1
0.1204 	1
0.1211 	1
0.1218 	1
0.1225 	1
0.1232 	1
0.1239 	1
0.1246 	1
0.1253 	1
0.126 	1
0.1267 	1
0.1274 	1
0.1281 	1
0.1288 	1
0.1295 	1
0.1302 	1
0.1309 	1
0.1316 	1
0.1323 	1
0.133 	1
0.1337 	1
0.1344 	1
0.1351 	1
0.1358 	1
0.1365 	1
0.1372 	1
0.1379 	1
0.1386 	1
0.1393 	1
0.14 	1
0.1407 	1
0.1414 	1
0.1421 	1
0.1428 	1
0.1435 	1
0.1442 	1
0.1449 	1
0.1456 	1
0.1463 	1
0.147 	1
0.1477 	1
0.1484 	1
0.1491 	1
0.1498 	1
0.1505 	1
0.1512 	1
0.1519 	1
0.1526 	1
0.1533 	1
0.154 	1
0.1547 	1
0.1554 	1
0.1561 	1
0.1568 	1
0.1575 	1
0.1582 	1
0.1589 	1
0.1596 	1
0.1603 	1
0.161 	1
0.1617 	1
0.1624 	1
0.1631 	1
0.1638 	1
0.1645 	1
0.1652 	1
0.1659 	1
0.1666 	1
0.1673 	1
0.168 	1
0.1687 	1
0.1694 	1
0.1701 	1
0.1708 	1
0.1715 	1
0.1722 	1
0.1729 	1
0.1736 	1
0.1743 	1
0.175 	1
0.1757 	1
0.1771 	1
0.1778 	1
0.1785 	1
0.1792 	1
0.1799 	1
0.1806 	1
0.1813 	1
0.182 	1
0.1827 	1
0.1834 	1
0.1841 	1
0.1848 	1
0.1855 	1
0.1862 	1
0.1869 	1
0.1876 	1
0.1883 	1
0.189 	1
0.1897 	1
0.1904 	1
0.1911 	1
0.1918 	1
0.1925 	1
0.1932 	1
0.1939 	1
0.1946 	1
0.1953 	1
0.196 	1
0.1967 	1
0.1974 	1
0.1981 	1
0.1988 	1
0.1995 	1
0.2002 	1
0.2009 	1
0.2016 	1
0.2023 	1
0.203 	1
0.2037 	1
0.2044 	1
0.2051 	1
0.2058 	1
0.2065 	1
0.2072 	1
0.2079 	1
0.2086 	1
0.2093 	1
0.21 	1
0.2107 	1
0.2114 	1
0.2121 	1
0.2128 	1
0.2135 	1
0.2142 	1
0.2149 	1
0.2156 	1
0.2163 	1
0.217 	1
0.2177 	1
0.2184 	1
0.2191 	1
0.2198 	1
0.2205 	1
0.2212 	1
0.2219 	1
0.2226 	1
0.2233 	1
0.224 	1
0.2247 	1
0.2254 	1
0.2268 	1
0.2275 	1
0.2282 	1
0.2289 	1
0.2296 	1
0.2303 	1
0.231 	1
0.2317 	1
0.2324 	1
0.2331 	1
0.2338 	1
0.2345 	1
0.2352 	0.999999
0.2359 	0.999997
0.2366 	0.999995
0.2373 	0.999993
0.238 	0.999991
0.2387 	0.999989
0.2394 	0.999987
0.2401 	0.999954
0.2408 	0.999731
0.2415 	0.999508
0.2422 	0.999285
0.2429 	0.999063
0.2436 	0.99884
0.2443 	0.998617
0.245 	0.998394
0.2457 	0.991649
0.2464 	0.984903
0.2471 	0.978158
0.2478 	0.971412
0.2485 	0.964667
0.2492 	0.957921
0.2499 	0.951176
0.2506 	0.914062
0.2513 	0.871887
0.252 	0.829712
0.2527 	0.787537
0.2534 	0.745362
0.2541 	0.703187
0.2548 	0.661012
0.2555 	0.605439
0.2562 	0.544508
0.2569 	0.483576
0.2576 	0.422644
0.2583 	0.361712
0.259 	0.30078
0.2597 	0.239848
0.2604 	0.198234
0.2611 	0.171109
0.2618 	0.143984
0.2625 	0.116859
0.2632 	0.0897335
0.2639 	0.0626083
0.2646 	0.0354832
0.2653 	0.0190291
0.266 	0.0168033
0.2667 	0.0145775
0.2674 	0.0123517
0.2681 	0.0101259
0.2688 	0.00790005
0.2695 	0.00567423
0.2702 	0.00395011
0.2709 	0.00348021
0.2716 	0.00301031
0.2723 	0.0025404
0.273 	0.0020705
0.2737 	0.00160059
0.2744 	0.00113069
0.2751 	0.000714398
0.2758 	0.000619786
0.2765 	0.000525174
0.2772 	0.000430561
0.2779 	0.000335949
0.2786 	0.000241337
0.2793 	0.000146724
0.28 	5.21118e-05
0.2807 	4.50458e-05
0.2814 	3.79799e-05
0.2821 	3.09144e-05
0.2828 	2.38489e-05
0.2835 	1.67834e-05
0.2842 	9.7179e-06
0.2849 	2.65241e-06
0.2856 	1.44807e-06
0.2863 	1.22059e-06
0.287 	9.93147e-07
0.2877 	7.65704e-07
0.2884 	5.3826e-07
0.2891 	3.10816e-07
0.2898 	8.33723e-08
0.2905 	1.65549e-08
0.2912 	1.3988e-08
0.2919 	1.14217e-08
0.2926 	8.85547e-09
0.2933 	6.28925e-09
0.294 	3.72302e-09
0.2947 	1.15679e-09
0.2954 	5.24267e-11
0.2961 	4.44522e-11
0.2968 	3.64803e-11
0.2975 	2.85089e-11
0.2982 	2.05376e-11
0.2989 	1.25663e-11
0.2996 	4.59493e-12
0.3003 	3.74902e-14
0.301 	3.19052e-14
0.3017 	2.63219e-14
0.3024 	2.07397e-14
0.3031 	1.51575e-14
0.3038 	9.57526e-15
0.3045 	3.99304e-15
0.3052 	5.51665e-18
0.3059 	4.71187e-18
0.3066 	3.90732e-18
0.308 	2.29867e-18
0.3087 	1.49434e-18
0.3094 	6.90013e-19
0.3101 	5.77907e-22
0.3108 	4.95325e-22
0.3115 	4.12757e-22
0.3122 	3.30216e-22
0.3129 	2.47675e-22
0.3136 	1.65133e-22
0.3143 	8.25919e-23
0.315 	5.06035e-26
0.3157 	4.35172e-26
0.3164 	3.64315e-26
0.3178 	2.22651e-26
0.3185 	1.51818e-26
0.3192 	8.09859e-27
0.3199 	1.01535e-27
0.3206 	3.04447e-30
0.3213 	2.56002e-30
0.3227 	1.59143e-30
0.3234 	1.10714e-30
0.3241 	6.22847e-31
0.3248 	1.38553e-31
0.3255 	1.65624e-34
0.3262 	1.39856e-34
0.3269 	1.14094e-34
0.3276 	8.83328e-35
0.3283 	6.25713e-35
0.329 	3.68097e-35
0.3297 	1.10482e-35
0.3304 	6.9121e-39
0.3311 	5.86024e-39
0.3318 	4.80844e-39
0.3325 	3.75664e-39
0.3332 	2.70485e-39
0.3339 	1.65305e-39
0.3346 	6.01259e-40
0.3353 	2.19033e-43
0.336 	1.86417e-43
0.3367 	1.53796e-43
0.3374 	1.21174e-43
0.3381 	8.85517e-44
0.3388 	5.59294e-44
0.3395 	2.33071e-44
0.3402 	5.21126e-48
0.3416 	3.69176e-48
0.3423 	2.93171e-48
0.343 	2.17166e-48
0.3437 	1.41161e-48
0.3444 	6.51565e-49
0.3451 	9.2418e-53
0.3465 	6.60285e-53
0.3472 	5.28231e-53
0.3479 	3.96177e-53
0.3486 	2.64123e-53
0.3493 	1.32068e-53
0.35 	1.41705e-57
0.3507 	1.21889e-57
0.3514 	1.02066e-57
0.3521 	8.22202e-58
0.3528 	6.23744e-58
0.3535 	4.25286e-58
0.3542 	2.26828e-58
0.3549 	2.837e-59
0.3556 	1.65969e-62
0.3563 	1.39606e-62
0.3577 	8.67831e-63
0.3584 	6.03715e-63
0.3591 	3.39599e-63
0.3598 	7.54832e-64
0.3605 	1.94184e-67
0.3612 	1.64042e-67
0.3619 	1.33829e-67
0.3626 	1.0361e-67
0.3633 	7.3391e-68
0.364 	4.31721e-68
0.3647 	1.29532e-68
0.3654 	2.01983e-72
0.3661 	1.71324e-72
0.3668 	1.4059e-72
0.3675 	1.09837e-72
0.3682 	7.90831e-73
0.3689 	4.83293e-73
0.3696 	1.75756e-73
0.3703 	1.93171e-77
0.371 	1.64485e-77
0.3717 	1.35732e-77
0.3724 	1.06941e-77
0.3731 	7.81494e-78
0.3738 	4.93582e-78
0.3745 	2.0567e-78
0.3752 	1.75109e-82
0.3759 	1.49656e-82
0.3766 	1.2415e-82
0.378 	7.30299e-83
0.3787 	4.747e-83
0.3794 	2.19101e-83
0.3801 	1.53825e-87
0.3808 	1.31929e-87
0.3815 	1.09996e-87
0.3822 	8.79974e-88
0.3829 	6.59984e-88
0.3836 	4.39994e-88
0.3843 	2.20004e-88
0.385 	1.33086e-92
0.3857 	1.14526e-92
0.3864 	9.59463e-93
0.3871 	7.72903e-93
0.3878 	5.86343e-93
0.3885 	3.99783e-93
0.3892 	2.13223e-93
0.3899 	2.66626e-94
0.3906 	9.87966e-98
0.3913 	8.31479e-98
0.392 	6.74174e-98
0.3927 	5.16869e-98
0.3934 	3.59564e-98
0.3941 	2.02259e-98
0.3948 	4.49537e-99
0.3955 	8.52173e-103
0.3962 	7.2028e-103
0.3969 	5.87645e-103
0.3976 	4.54953e-103
0.3983 	3.2226e-103
0.399 	1.89568e-103
0.3997 	5.68761e-104
0.4004 	7.38106e-108
0.4011 	6.26373e-108
0.4018 	5.14075e-108
0.4025 	4.01623e-108
0.4032 	2.8917e-108
0.4039 	1.76718e-108
0.4046 	6.42654e-109
0.4053 	6.44495e-113
0.406 	5.49028e-113
0.4067 	4.53141e-113
0.4074 	3.57021e-113
0.4081 	2.60902e-113
0.4088 	1.64782e-113
0.4095 	6.86627e-114
0.4102 	5.67764e-118
0.4109 	4.85427e-118
0.4116 	4.02795e-118
0.4123 	3.19868e-118
0.413 	2.3694e-118
0.4137 	1.54013e-118
0.4144 	7.10857e-119
0.4151 	5.04967e-123
0.4158 	4.33241e-123
0.4165 	3.61322e-123
0.4172 	2.89059e-123
0.4179 	2.16795e-123
0.4186 	1.44532e-123
0.4193 	7.22681e-124
0.42 	4.53006e-128
0.4207 	3.89952e-128
0.4214 	3.26794e-128
0.4221 	2.63252e-128
0.4228 	1.99709e-128
0.4235 	1.36167e-128
0.4242 	7.2624e-129
0.4249 	9.08152e-130
0.4256 	3.53732e-133
0.4263 	2.97807e-133
0.427 	2.41466e-133
0.4277 	1.85125e-133
0.4284 	1.28784e-133
0.4291 	7.24423e-134
0.4298 	1.61011e-134
0.4305 	3.22781e-138
0.4312 	2.72915e-138
0.4319 	2.22666e-138
0.4326 	1.72387e-138
0.434 	7.18298e-139
0.4347 	2.15512e-139
0.4354 	2.95846e-143
0.4361 	2.51135e-143
0.4368 	2.06127e-143
0.4375 	1.61038e-143
0.4382 	1.15948e-143
0.4389 	7.08585e-144
0.4396 	2.57689e-144
0.4403 	3.27893e-148
0.441 	2.82629e-148
0.4424 	1.91513e-148
0.4431 	1.45892e-148
0.4438 	1.0027e-148
0.4445 	5.46483e-149
0.4452 	2.13006e-149
0.4459 	1.86382e-149
0.4466 	1.59723e-149
0.4473 	1.33029e-149
0.448 	1.06335e-149
0.4487 	7.96413e-150
0.4494 	5.29474e-150
0.4501 	2.95484e-150
0.4515 	2.22874e-150
0.4522 	1.86512e-150
0.4529 	1.5015e-150
0.4536 	1.13788e-150
0.4543 	7.74264e-151
0.455 	4.10644e-151
0.4557 	3.60225e-151
0.4564 	3.09784e-151
0.4571 	2.59261e-151
0.4578 	2.08737e-151
0.4585 	1.58214e-151
0.4592 	1.07691e-151
0.4599 	5.71676e-152
0.4606 	4.46194e-152
0.4613 	3.83994e-152
0.462 	3.21653e-152
0.4627 	2.59312e-152
0.4634 	1.96972e-152
0.4641 	1.34631e-152
0.4648 	7.22899e-153
0.4655 	4.95806e-153
0.4662 	4.27238e-153
0.4669 	3.58493e-153
0.4676 	2.89733e-153
0.4683 	2.20974e-153
0.469 	1.52214e-153
0.4697 	8.34548e-154
0.4704 	5.00694e-154
0.4711 	4.32146e-154
0.4718 	3.63427e-154
0.4725 	2.94662e-154
0.4732 	2.25897e-154
0.4739 	1.57132e-154
0.4746 	8.83663e-155
0.4753 	4.63822e-155
0.476 	4.01062e-155
0.4767 	3.38159e-155
0.4774 	2.75177e-155
0.4781 	2.12195e-155
0.4788 	1.49213e-155
0.4795 	8.62305e-156
0.4802 	3.97271e-156
0.4809 	3.44207e-156
0.4816 	2.91039e-156
0.4823 	2.37766e-156
0.483 	1.84492e-156
0.4837 	1.31219e-156
0.4844 	7.79463e-157
0.4851 	3.16872e-157
0.4858 	2.75127e-157
0.4872 	1.91388e-157
0.4879 	1.4946e-157
0.4886 	1.07533e-157
0.4893 	6.56051e-158
0.49 	2.36774e-158
0.4907 	2.06026e-158
0.4914 	1.75247e-158
0.4921 	1.44352e-158
0.4928 	1.13457e-158
0.4935 	8.25623e-159
0.4942 	5.16673e-159
0.4949 	2.07723e-159
0.4956 	1.45312e-159
0.4963 	1.23983e-159
0.497 	1.0255e-159
0.4977 	8.11165e-160
0.4984 	5.96832e-160
0.4991 	3.82499e-160
0.4998 	1.68167e-160
0.5005 	9.69428e-161
0.5012 	8.29625e-161
0.5019 	6.89074e-161
0.5026 	5.48465e-161
0.5033 	4.07855e-161
0.504 	2.67246e-161
0.5047 	1.26637e-161
0.5054 	6.14034e-162
0.5061 	5.27014e-162
0.5068 	4.39563e-162
0.5075 	3.51996e-162
0.5082 	2.64428e-162
0.5089 	1.7686e-162
0.5096 	8.92919e-163
0.5103 	3.70424e-163
0.511 	3.18839e-163
0.5117 	2.67026e-163
0.5124 	2.15088e-163
0.5131 	1.6315e-163
0.5138 	1.11211e-163
0.5145 	5.92727e-164
0.5152 	2.13394e-164
0.5159 	1.84193e-164
0.5166 	1.54883e-164
0.5173 	1.25464e-164
0.518 	9.60456e-165
0.5187 	6.66268e-165
0.5194 	3.7208e-165
0.5201 	1.17658e-165
0.5208 	1.01837e-165
0.5215 	8.59693e-166
0.5222 	7.00197e-166
0.5229 	5.407e-166
0.5236 	3.81203e-166
0.5243 	2.21707e-166
0.525 	6.22102e-167
0.5257 	5.39891e-167
0.5264 	4.57524e-167
0.5271 	3.74591e-167
0.5278 	2.91658e-167
0.5285 	2.08725e-167
0.5292 	1.25791e-167
0.5299 	4.28581e-168
0.5306 	2.74929e-168
0.5313 	2.33861e-168
0.532 	1.92432e-168
0.5327 	1.51002e-168
0.5334 	1.09573e-168
0.5341 	6.81429e-169
0.5348 	2.67133e-169
0.5355 	1.34683e-169
0.5362 	1.14971e-169
0.5369 	9.50709e-170
0.5376 	7.51563e-170
0.5383 	5.52416e-170
0.539 	3.53269e-170
0.5397 	1.54123e-170
0.5404 	6.35616e-171
0.5411 	5.44391e-171
0.5418 	4.52367e-171
0.5425 	3.60125e-171
0.5432 	2.67882e-171
0.5439 	1.75639e-171
0.5446 	8.33968e-172
0.5453 	2.89408e-172
0.546 	2.48669e-172
0.5467 	2.07613e-172
0.5474 	1.66381e-172
0.5481 	1.25148e-172
0.5488 	8.39156e-173
0.5495 	4.26831e-173
0.5502 	1.27291e-173
0.5509 	1.09714e-173
0.5516 	9.20203e-174
0.5523 	7.42113e-174
0.553 	5.64024e-174
0.5537 	3.85934e-174
0.5544 	2.07844e-174
0.5551 	5.41475e-175
0.5558 	4.68113e-175
0.5572 	3.19962e-175
0.5579 	2.45548e-175
0.5586 	1.71134e-175
0.5593 	9.67204e-176
0.56 	2.23066e-176
0.5607 	1.93409e-176
0.5621 	1.33531e-176
0.5628 	1.0341e-176
0.5635 	7.32888e-177
0.5642 	4.31675e-177
0.5649 	1.30463e-177
0.5656 	7.7468e-178
0.5663 	6.58284e-178
0.567 	5.40039e-178
0.5677 	4.21794e-178
0.5684 	3.03549e-178
0.5691 	1.85304e-178
0.5698 	6.70584e-179
0.5705 	3.01144e-179
0.5712 	2.56907e-179
0.5719 	2.11898e-179
0.5726 	1.66829e-179
0.5733 	1.21761e-179
0.574 	7.66921e-180
0.5747 	3.16235e-180
0.5754 	1.13736e-180
0.5761 	9.73783e-181
0.5768 	8.07539e-181
0.5775 	6.40567e-181
0.5782 	4.73596e-181
0.5789 	3.06624e-181
0.5796 	1.39653e-181
0.5803 	4.1722e-182
0.581 	3.58462e-182
0.5817 	2.98836e-182
0.5824 	2.38728e-182
0.5831 	1.7862e-182
0.5838 	1.18512e-182
0.5845 	5.84043e-183
0.5852 	1.48835e-183
0.5859 	1.28308e-183
0.5866 	1.07518e-183
0.5873 	8.64671e-184
0.588 	6.54158e-184
0.5887 	4.43645e-184
0.5894 	2.33132e-184
0.5901 	5.16953e-185
0.5908 	4.47124e-185
0.5915 	3.76586e-185
0.5922 	3.0477e-185
0.5929 	2.32954e-185
0.5936 	1.61138e-185
0.5943 	8.93215e-186
0.595 	1.75054e-186
0.5957 	1.51896e-186
0.5964 	1.2858e-186
0.5971 	1.04684e-186
0.5978 	8.07876e-187
0.5985 	5.68917e-187
0.5992 	3.29957e-187
0.5999 	9.09974e-188
0.6006 	5.04267e-188
0.6013 	4.29016e-188
0.602 	3.51271e-188
0.6027 	2.73527e-188
0.6034 	1.95782e-188
0.6041 	1.18037e-188
0.6048 	4.02925e-189
0.6055 	1.63795e-189
0.6062 	1.39992e-189
0.6069 	1.15297e-189
0.6076 	9.05348e-190
0.6083 	6.57721e-190
0.609 	4.10095e-190
0.6097 	1.62468e-190
0.6104 	5.2117e-191
0.6111 	4.47228e-191
0.6118 	3.7064e-191
0.6125 	2.93331e-191
0.6132 	2.16023e-191
0.6139 	1.38714e-191
0.6146 	6.14053e-192
0.6153 	1.62636e-192
0.616 	1.4011e-192
0.6167 	1.16839e-192
0.6174 	9.31529e-193
0.6181 	6.94668e-193
0.6188 	4.57807e-193
0.6195 	2.20946e-193
0.6202 	4.98348e-194
0.6209 	4.30979e-194
0.6216 	3.61641e-194
0.6223 	2.90335e-194
0.623 	2.19029e-194
0.6237 	1.47722e-194
0.6244 	7.64156e-195
0.6251 	1.50129e-195
0.6258 	1.30324e-195
0.6265 	1.10049e-195
0.6272 	8.893e-196
0.6279 	6.78107e-196
0.6286 	4.66914e-196
0.6293 	2.55721e-196
0.63 	4.45281e-197
0.6307 	3.87972e-197
0.6314 	3.29738e-197
0.6321 	2.68108e-197
0.6328 	2.06479e-197
0.6335 	1.4485e-197
0.6342 	8.32201e-198
0.6349 	2.15906e-198
0.6356 	1.13855e-198
0.6363 	9.74115e-199
0.637 	7.96682e-199
0.6377 	6.1925e-199
0.6384 	4.41817e-199
0.6391 	2.64384e-199
0.6398 	8.69519e-200
0.6405 	3.29722e-200
0.6412 	2.83737e-200
0.6419 	2.33603e-200
0.6426 	1.83151e-200
0.6433 	1.32698e-200
0.644 	8.22456e-201
0.6447 	3.1793e-201
0.6454 	9.43979e-202
0.6461 	8.16098e-202
0.6468 	6.77163e-202
0.6475 	5.35213e-202
0.6482 	3.93263e-202
0.6489 	2.51313e-202
0.6496 	1.09362e-202
0.6503 	2.67403e-203
0.651 	2.32224e-203
0.6517 	1.94235e-203
0.6531 	1.15133e-203
0.6538 	7.55827e-204
0.6545 	3.60321e-204
0.6552 	7.50764e-205
0.6559 	6.54863e-205
0.6566 	5.52253e-205
0.6573 	4.42934e-205
0.658 	3.33616e-205
0.6587 	2.24298e-205
0.6594 	1.1498e-205
0.6601 	2.09081e-206
0.6608 	1.83151e-206
0.6615 	1.55768e-206
0.6622 	1.25772e-206
0.6629 	9.57753e-207
0.6636 	6.57787e-207
0.6643 	3.57822e-207
0.665 	5.7856e-208
0.6657 	5.0889e-208
0.6664 	4.36609e-208
0.6671 	3.54756e-208
0.6678 	2.72903e-208
0.6685 	1.9105e-208
0.6692 	1.09197e-208
0.6699 	2.73438e-209
0.6706 	1.40551e-209
0.6713 	1.21679e-209
0.672 	9.94562e-210
0.6727 	7.72335e-210
0.6734 	5.50107e-210
0.6741 	3.27879e-210
0.6748 	1.05652e-210
0.6755 	3.86219e-211
0.6762 	3.36714e-211
0.6769 	2.77389e-211
0.6776 	2.17309e-211
0.6783 	1.57229e-211
0.679 	9.71489e-212
0.6797 	3.70687e-212
0.6804 	1.05701e-212
0.6811 	9.25782e-213
0.6818 	7.70448e-213
0.6825 	6.08542e-213
0.6832 	4.46635e-213
0.6839 	2.84729e-213
0.6846 	1.22822e-213
0.6853 	2.88179e-214
0.686 	2.53492e-214
0.6867 	2.13142e-214
0.6874 	1.69646e-214
0.6881 	1.2615e-214
0.6888 	8.26539e-215
0.6895 	3.91579e-215
0.6902 	7.82809e-216
0.6909 	6.91352e-216
0.6916 	5.87371e-216
0.6923 	4.70864e-216
0.693 	3.54357e-216
0.6937 	2.37851e-216
0.6944 	1.21344e-216
0.6951 	2.11388e-217
0.6958 	1.87438e-217
0.6965 	1.61068e-217
0.6972 	1.3034e-217
0.6979 	9.96117e-218
0.6986 	6.88837e-218
0.6993 	3.81556e-218
0.7 	7.42762e-219
