0 	1
0.0007 	1
0.0014 	1
0.0021 	1
0.0028 	1
0.0035 	1
0.0042 	1
0.0049 	1
0.0056 	1
0.0063 	1
0.007 	1
0.0084 	1
0.0091 	1
0.0098 	1
0.0105 	1
0.0112 	1
0.0119 	1
0.0126 	1
0.0133 	1
0.014 	1
0.0147 	1
0.0154 	1
0.0161 	1
0.0168 	1
0.0175 	1
0.0182 	1
0.0189 	1
0.0196 	1
0.0203 	1
0.0217 	1
0.0224 	1
0.0231 	1
0.0238 	1
0.0245 	1
0.0252 	1
0.0259 	1
0.0266 	1
0.0273 	1
0.028 	1
0.0287 	1
0.0294 	1
0.0301 	1
0.0308 	1
0.0315 	1
0.0322 	1
0.0329 	1
0.0336 	1
0.0343 	1
0.035 	1
0.0357 	1
0.0364 	1
0.0371 	1
0.0378 	1
0.0385 	1
0.0392 	1
0.0399 	1
0.0406 	1
0.042 	1
0.0427 	1
0.0434 	1
0.0441 	1
0.0448 	1
0.0455 	1
0.0462 	1
0.0469 	1
0.0476 	1
0.0483 	1
0.049 	1
0.0497 	1
0.0504 	1
0.0511 	1
0.0518 	1
0.0525 	1
0.0532 	1
0.0539 	1
0.0546 	1
0.0553 	1
0.056 	1
0.0567 	1
0.0574 	1
0.0581 	1
0.0588 	1
0.0595 	1
0.0602 	1
0.0609 	1
0.0616 	1
0.0623 	1
0.063 	1
0.0637 	1
0.0644 	1
0.0651 	1
0.0658 	1
0.0672 	1
0.0686 	1
0.0693 	1
0.07 	1
0.0707 	1
0.0714 	1
0.0721 	1
0.0728 	1
0.0735 	1
0.0742 	1
0.0749 	1
0.0756 	1
0.0763 	1
0.077 	1
0.0777 	1
0.0784 	1
0.0791 	1
0.0798 	1
0.0805 	1
0.0812 	1
0.0819 	1
0.0826 	1
0.0833 	1
0.084 	1
0.0847 	1
0.0854 	1
0.0861 	1
0.0868 	1
0.0882 	1
0.0889 	1
0.0896 	1
0.0903 	1
0.091 	1
0.0917 	1
0.0924 	1
0.0931 	1
0.0938 	1
0.0945 	1
0.0952 	1
0.0959 	1
0.0966 	1
0.0973 	1
0.098 	1
0.0987 	1
0.0994 	1
0.1001 	1
0.1008 	1
0.1015 	1
0.1022 	1
0.1029 	1
0.1036 	1
0.1043 	1
0.105 	1
0.1057 	1
0.1064 	1
0.1078 	1
0.1092 	1
0.1106 	1
0.1113 	1
0.112 	1
0.1127 	1
0.1134 	1
0.1141 	1
0.1148 	1
0.1155 	1
0.1162 	1
0.1169 	1
0.1176 	1
0.1183 	1
0.119 	1
0.1197 	1
0.1204 	1
0.1211 	1
0.1218 	1
0.1225 	1
0.1232 	1
0.1239 	1
0.1246 	1
0.1253 	1
0.126 	1
0.1267 	1
0.1274 	1
0.1281 	1
0.1288 	1
0.1295 	1
0.1302 	1
0.1309 	1
0.1316 	1
0.1323 	1
0.133 	1
0.1337 	1
0.1344 	1
0.1351 	1
0.1358 	1
0.1365 	1
0.1372 	1
0.1379 	1
0.1386 	1
0.1393 	1
0.14 	1
0.1407 	1
0.1414 	1
0.1421 	1
0.1428 	1
0.1435 	1
0.1442 	1
0.1449 	1
0.1456 	1
0.1463 	1
0.147 	1
0.1477 	1
0.1484 	1
0.1491 	1
0.1498 	1
0.1505 	1
0.1512 	1
0.1519 	1
0.1526 	1
0.1533 	1
0.154 	1
0.1547 	1
0.1554 	1
0.1561 	1
0.1568 	1
0.1575 	1
0.1582 	1
0.1589 	1
0.1596 	1
0.1603 	1
0.161 	1
0.1617 	1
0.1624 	1
0.1631 	1
0.1638 	1
0.1645 	1
0.1652 	1
0.1659 	1
0.1666 	1
0.1673 	1
0.168 	1
0.1687 	1
0.1694 	1
0.1701 	1
0.1708 	1
0.1715 	1
0.1722 	1
0.1729 	1
0.1736 	1
0.1743 	1
0.175 	1
0.1757 	1
0.1764 	1
0.1771 	1
0.1778 	1
0.1785 	1
0.1792 	1
0.1799 	1
0.1806 	1
0.1813 	1
0.182 	1
0.1834 	1
0.1841 	1
0.1848 	1
0.1855 	1
0.1862 	1
0.1869 	1
0.1876 	1
0.1883 	1
0.189 	1
0.1897 	1
0.1904 	1
0.1911 	1
0.1918 	1
0.1925 	1
0.1932 	1
0.1939 	1
0.1946 	1
0.1953 	1
0.196 	1
0.1967 	1
0.1974 	1
0.1981 	1
0.1988 	1
0.1995 	1
0.2002 	1
0.2009 	1
0.2016 	1
0.2023 	1
0.203 	1
0.2037 	1
0.2044 	1
0.2051 	1
0.2058 	1
0.2065 	1
0.2072 	1
0.2079 	1
0.2086 	1
0.2093 	1
0.21 	1
0.2107 	1
0.2114 	1
0.2121 	1
0.2128 	1
0.2135 	1
0.2142 	1
0.2149 	1
0.2156 	1
0.2163 	1
0.217 	1
0.2177 	1
0.2184 	1
0.2191 	1
0.2198 	1
0.2205 	1
0.2212 	1
0.2219 	1
0.2226 	1
0.2233 	1
0.224 	1
0.2247 	1
0.2254 	1
0.2261 	1
0.2275 	1
0.2282 	1
0.2289 	1
0.2296 	1
0.2303 	1
0.231 	1
0.2317 	1
0.2324 	1
0.2331 	1
0.2338 	1
0.2345 	1
0.2352 	1
0.2359 	1
0.2366 	1
0.2373 	1
0.238 	1
0.2387 	1
0.2394 	1
0.2401 	1
0.2408 	1
0.2415 	1
0.2422 	1
0.2429 	1
0.2436 	1
0.2443 	1
0.245 	1
0.2457 	1
0.2464 	1
0.2471 	1
0.2478 	1
0.2485 	1
0.2492 	1
0.2499 	1
0.2506 	0.999994
0.2513 	0.999987
0.252 	0.999979
0.2527 	0.999972
0.2534 	0.999965
0.2541 	0.999958
0.2548 	0.999951
0.2555 	0.999387
0.2562 	0.9986
0.2569 	0.997812
0.2576 	0.997025
0.2583 	0.996238
0.259 	0.99545
0.2597 	0.994663
0.2604 	0.986064
0.2611 	0.971605
0.2618 	0.957147
0.2625 	0.942688
0.2632 	0.92823
0.2639 	0.913771
0.2646 	0.899313
0.2653 	0.867107
0.2667 	0.75537
0.2674 	0.699502
0.2681 	0.643633
0.2688 	0.587764
0.2695 	0.531895
0.2702 	0.4764
0.2709 	0.421838
0.2716 	0.367277
0.2723 	0.312715
0.273 	0.258153
0.2737 	0.203592
0.2744 	0.14903
0.2751 	0.100415
0.2758 	0.0874815
0.2765 	0.0745479
0.2772 	0.0616144
0.2786 	0.0357475
0.2793 	0.0228141
0.28 	0.00988062
0.2807 	0.00914335
0.2814 	0.00840609
0.2821 	0.00766884
0.2828 	0.0069316
0.2835 	0.00619435
0.2842 	0.00545711
0.2849 	0.00471987
0.2856 	0.0043323
0.2863 	0.00400301
0.287 	0.00367373
0.2877 	0.00334445
0.2884 	0.00301517
0.2891 	0.00268589
0.2898 	0.00235661
0.2905 	0.0021045
0.2912 	0.00188326
0.2919 	0.00166203
0.2926 	0.00144081
0.2933 	0.00121958
0.294 	0.000998359
0.2947 	0.000777135
0.2954 	0.000636961
0.2961 	0.000557574
0.2968 	0.000478195
0.2975 	0.000398819
0.2982 	0.000319442
0.2989 	0.000240066
0.2996 	0.000160689
0.3003 	0.000109242
0.301 	9.50336e-05
0.3017 	8.08265e-05
0.3024 	6.66201e-05
0.3031 	5.24137e-05
0.3038 	3.82073e-05
0.3045 	2.40009e-05
0.3052 	1.33366e-05
0.3059 	1.15277e-05
0.3066 	9.71881e-06
0.3073 	7.91004e-06
0.308 	6.10127e-06
0.3087 	4.2925e-06
0.3094 	2.48373e-06
0.3101 	9.15237e-07
0.3108 	7.88392e-07
0.3115 	6.61548e-07
0.3122 	5.34707e-07
0.3129 	4.07865e-07
0.3136 	2.81024e-07
0.3143 	1.54183e-07
0.315 	2.73417e-08
0.3157 	2.35529e-08
0.3164 	1.97639e-08
0.3171 	1.59747e-08
0.3178 	1.21855e-08
0.3185 	8.39627e-09
0.3192 	4.60706e-09
0.3199 	8.17844e-10
0.3206 	2.43452e-10
0.3213 	2.04862e-10
0.322 	1.66263e-10
0.3227 	1.27663e-10
0.3234 	8.90635e-11
0.3241 	5.0464e-11
0.3248 	1.18644e-11
0.3255 	7.52551e-13
0.3262 	6.35811e-13
0.3269 	5.19005e-13
0.3276 	4.02195e-13
0.3283 	2.85385e-13
0.329 	1.68575e-13
0.3297 	5.1765e-14
0.3304 	1.62137e-15
0.3311 	1.47768e-15
0.3318 	1.33391e-15
0.3325 	1.19012e-15
0.3332 	1.04633e-15
0.3339 	9.02537e-16
0.3346 	7.58747e-16
0.3353 	6.66644e-16
0.336 	6.43458e-16
0.3367 	6.2028e-16
0.3374 	5.97106e-16
0.3381 	5.73932e-16
0.3388 	5.50758e-16
0.3395 	5.27584e-16
0.3402 	5.02537e-16
0.3416 	4.4308e-16
0.3423 	4.13352e-16
0.343 	3.83625e-16
0.3437 	3.53898e-16
0.3444 	3.24171e-16
0.3451 	2.94594e-16
0.3458 	2.6592e-16
0.3465 	2.37236e-16
0.3472 	2.08533e-16
0.3479 	1.79829e-16
0.3486 	1.51126e-16
0.3493 	1.22422e-16
0.35 	9.37186e-17
0.3507 	8.18208e-17
0.3514 	6.99164e-17
0.3521 	5.79877e-17
0.3528 	4.60589e-17
0.3535 	3.41302e-17
0.3542 	2.22014e-17
0.3549 	1.02727e-17
0.3556 	7.55405e-18
0.357 	5.17996e-18
0.3577 	3.98995e-18
0.3584 	2.79994e-18
0.3591 	1.60993e-18
0.3598 	4.19916e-19
0.3605 	7.19824e-20
0.3619 	4.96752e-20
0.3626 	3.8464e-20
0.3633 	2.72529e-20
0.364 	1.60417e-20
0.3647 	4.83057e-21
0.3654 	2.37506e-23
0.3661 	2.01833e-23
0.3668 	1.65708e-23
0.3682 	9.32113e-24
0.3689 	5.69629e-24
0.3696 	2.07144e-24
0.3703 	1.01079e-28
0.371 	8.62506e-29
0.3717 	7.12403e-29
0.3724 	5.61288e-29
0.3731 	4.10173e-29
0.3738 	2.59058e-29
0.3745 	1.07943e-29
0.3752 	3.25529e-34
0.3766 	2.31606e-34
0.3773 	1.83922e-34
0.378 	1.36239e-34
0.3787 	8.85556e-35
0.3794 	4.08722e-35
0.3801 	6.78388e-40
0.3808 	5.83148e-40
0.3815 	4.87128e-40
0.3822 	3.89702e-40
0.3829 	2.92277e-40
0.3836 	1.94852e-40
0.3843 	9.74263e-41
0.385 	1.01145e-45
0.3857 	8.72414e-46
0.3864 	7.32645e-46
0.3871 	5.90187e-46
0.3878 	4.47728e-46
0.3885 	3.0527e-46
0.3892 	1.62811e-46
0.3899 	2.03526e-47
0.3906 	1.19166e-51
0.3913 	1.00569e-51
0.392 	8.15425e-52
0.3927 	6.2516e-52
0.3934 	4.34894e-52
0.3941 	2.44629e-52
0.3948 	5.43635e-53
0.3955 	1.72993e-57
0.3969 	1.19654e-57
0.3976 	9.26353e-58
0.3983 	6.56168e-58
0.399 	3.85982e-58
0.3997 	1.15797e-58
0.4004 	2.52017e-63
0.4011 	2.14459e-63
0.4018 	1.76138e-63
0.4025 	1.37608e-63
0.4032 	9.90775e-64
0.4039 	6.05475e-64
0.4046 	2.20175e-64
0.4053 	3.76041e-69
0.406 	3.21168e-69
0.4067 	2.65383e-69
0.4074 	2.0909e-69
0.4081 	1.52796e-69
0.4088 	9.65033e-70
0.4095 	4.02101e-70
0.4102 	6.22301e-75
0.4109 	5.33348e-75
0.4116 	4.43243e-75
0.4123 	3.51988e-75
0.413 	2.60732e-75
0.4137 	1.69476e-75
0.4144 	7.82204e-76
0.4151 	1.14008e-80
0.4158 	9.80395e-81
0.4165 	8.19227e-81
0.4172 	6.55382e-81
0.4186 	3.27692e-81
0.4193 	1.63847e-81
0.42 	2.28776e-86
0.4207 	1.97349e-86
0.4214 	1.65751e-86
0.4221 	1.33522e-86
0.4228 	1.01293e-86
0.4235 	6.90633e-87
0.4242 	3.6834e-87
0.4249 	4.60469e-88
0.4256 	4.40765e-92
0.4263 	3.72011e-92
0.427 	3.0163e-92
0.4277 	2.3125e-92
0.4284 	1.6087e-92
0.4291 	9.049e-93
0.4298 	2.01098e-93
0.4305 	1.08944e-97
0.4312 	9.23443e-98
0.4319 	7.53578e-98
0.4326 	5.83416e-98
0.4333 	4.13254e-98
0.434 	2.43092e-98
0.4347 	7.29298e-99
0.4354 	2.95309e-103
0.4361 	2.51253e-103
0.4368 	2.06347e-103
0.4375 	1.61209e-103
0.4382 	1.16071e-103
0.4389 	7.09324e-104
0.4396 	2.57942e-104
0.4403 	8.67714e-109
0.441 	7.40931e-109
0.4417 	6.12174e-109
0.4424 	4.82319e-109
0.4431 	3.52465e-109
0.4438 	2.22611e-109
0.4445 	9.27561e-110
0.4452 	2.78046e-114
0.4459 	2.38225e-114
0.4466 	1.97939e-114
0.4473 	1.57187e-114
0.448 	1.16435e-114
0.4487 	7.5683e-115
0.4494 	3.49312e-115
0.4501 	9.83361e-120
0.4508 	8.45275e-120
0.4515 	7.06071e-120
0.4522 	5.64858e-120
0.4529 	4.23645e-120
0.4536 	2.82431e-120
0.4543 	1.41218e-120
0.455 	4.44147e-125
0.4557 	3.82922e-125
0.4564 	3.21425e-125
0.4571 	2.58926e-125
0.4578 	1.96428e-125
0.4585 	1.3393e-125
0.4592 	7.14312e-126
0.4599 	8.93287e-127
0.4606 	3.99762e-130
0.4613 	3.36948e-130
0.462 	2.73203e-130
0.4627 	2.09459e-130
0.4634 	1.45714e-130
0.4641 	8.19692e-131
0.4648 	1.82245e-131
0.4655 	1.05484e-134
0.4662 	8.92539e-135
0.4669 	7.28256e-135
0.4676 	5.6382e-135
0.4683 	3.99384e-135
0.469 	2.34948e-135
0.4697 	7.05126e-136
0.4704 	3.68771e-139
0.4711 	3.1319e-139
0.4718 	2.57095e-139
0.4725 	2.00858e-139
0.4732 	1.44622e-139
0.4739 	8.83862e-140
0.4746 	3.21501e-140
0.4753 	1.42387e-143
0.476 	1.21353e-143
0.4767 	1.00181e-143
0.4774 	7.89326e-144
0.4781 	5.76842e-144
0.4788 	3.64358e-144
0.4795 	1.51875e-144
0.4802 	9.73959e-148
0.4816 	7.59272e-148
0.4823 	6.5137e-148
0.483 	5.43468e-148
0.4837 	4.35567e-148
0.4844 	3.27665e-148
0.4851 	2.33469e-148
0.4865 	2.09549e-148
0.4872 	1.97587e-148
0.4879 	1.85625e-148
0.4886 	1.73663e-148
0.4893 	1.61701e-148
0.49 	1.49739e-148
0.4907 	1.40986e-148
0.4914 	1.32232e-148
0.4921 	1.23477e-148
0.4928 	1.14721e-148
0.4935 	1.05965e-148
0.4942 	9.72097e-149
0.4949 	8.84541e-149
0.4956 	8.25185e-149
0.4963 	7.70528e-149
0.497 	7.15855e-149
0.4977 	6.61183e-149
0.4984 	6.0651e-149
0.4991 	5.51837e-149
0.4998 	4.97164e-149
0.5005 	4.58345e-149
0.5012 	4.25868e-149
0.5019 	3.9338e-149
0.5026 	3.60891e-149
0.5033 	3.28402e-149
0.504 	2.95913e-149
0.5047 	2.63424e-149
0.5054 	2.3922e-149
0.5068 	2.03234e-149
0.5075 	1.85236e-149
0.5082 	1.67239e-149
0.5089 	1.49241e-149
0.5096 	1.31243e-149
0.5103 	1.16991e-149
0.511 	1.07731e-149
0.5117 	9.84694e-150
0.5124 	8.92058e-150
0.5131 	7.99422e-150
0.5138 	7.06786e-150
0.5145 	6.1415e-150
0.5152 	5.35357e-150
0.5159 	4.91169e-150
0.5166 	4.4697e-150
0.5173 	4.0276e-150
0.518 	3.58549e-150
0.5187 	3.14338e-150
0.5194 	2.70127e-150
0.5201 	2.29435e-150
0.5208 	2.09856e-150
0.5215 	1.90274e-150
0.5222 	1.70684e-150
0.5229 	1.51093e-150
0.5236 	1.31503e-150
0.5243 	1.11913e-150
0.525 	9.2323e-151
0.5257 	8.4239e-151
0.5264 	7.61537e-151
0.5271 	6.80643e-151
0.5278 	5.99749e-151
0.5285 	5.18855e-151
0.5292 	4.37961e-151
0.5299 	3.57067e-151
0.5306 	3.18723e-151
0.5313 	2.87468e-151
0.532 	2.56192e-151
0.5327 	2.24917e-151
0.5334 	1.93641e-151
0.5341 	1.62366e-151
0.5348 	1.3109e-151
0.5355 	1.14037e-151
0.5362 	1.02671e-151
0.5369 	9.12982e-152
0.5383 	6.85505e-152
0.539 	5.71766e-152
0.5397 	4.58028e-152
0.5404 	3.86979e-152
0.5411 	3.47947e-152
0.5418 	3.0889e-152
0.5425 	2.69827e-152
0.5432 	2.30763e-152
0.5439 	1.91699e-152
0.5446 	1.52635e-152
0.5453 	1.24869e-152
0.5467 	9.94576e-153
0.5474 	8.67441e-153
0.5481 	7.40306e-153
0.5488 	6.13171e-153
0.5495 	4.86037e-153
0.5502 	3.84002e-153
0.5516 	3.05414e-153
0.5523 	2.66093e-153
0.553 	2.26772e-153
0.5537 	1.87451e-153
0.5544 	1.4813e-153
0.5551 	1.12773e-153
0.5558 	1.01198e-153
0.5565 	8.96191e-154
0.5572 	7.80329e-154
0.5579 	6.64466e-154
0.5586 	5.48603e-154
0.5593 	4.32741e-154
0.56 	3.16878e-154
0.5607 	2.84313e-154
0.5614 	2.5174e-154
0.5621 	2.19142e-154
0.5628 	1.86543e-154
0.5635 	1.53944e-154
0.5642 	1.21345e-154
0.5649 	8.87465e-155
0.5656 	7.65753e-155
0.5663 	6.7808e-155
0.567 	5.9032e-155
0.5677 	5.0256e-155
0.5684 	4.14799e-155
0.5691 	3.27039e-155
0.5698 	2.39279e-155
0.5705 	1.98044e-155
0.5719 	1.52771e-155
0.5726 	1.30121e-155
0.5733 	1.07471e-155
0.574 	8.48216e-156
0.5747 	6.21716e-156
0.5754 	4.92602e-156
0.5761 	4.36526e-156
0.5775 	3.24256e-156
0.5782 	2.68115e-156
0.5789 	2.11973e-156
0.5796 	1.55831e-156
0.5803 	1.18019e-156
0.581 	1.04648e-156
0.5817 	9.12663e-157
0.5824 	7.78786e-157
0.5831 	6.4491e-157
0.5838 	5.11034e-157
0.5845 	3.77157e-157
0.5852 	2.72753e-157
0.5859 	2.42028e-157
0.5866 	2.11284e-157
0.5873 	1.8052e-157
0.588 	1.49756e-157
0.5887 	1.18992e-157
0.5894 	8.82282e-158
0.5901 	6.08859e-158
0.5908 	5.40726e-158
0.5915 	4.72561e-158
0.5922 	4.04339e-158
0.5929 	3.36116e-158
0.5936 	2.67894e-158
0.5943 	1.99672e-158
0.595 	1.31449e-158
0.5957 	1.16848e-158
0.5964 	1.02243e-158
0.5971 	8.76221e-159
0.5978 	7.30012e-159
0.5985 	5.83803e-159
0.5992 	4.37595e-159
0.5999 	2.91386e-159
0.6006 	2.44543e-159
0.6013 	2.14257e-159
0.602 	1.83932e-159
0.6027 	1.53608e-159
0.6034 	1.23283e-159
0.6041 	9.29576e-160
0.6048 	6.26327e-160
0.6055 	4.96216e-160
0.6069 	3.74422e-160
0.6083 	2.52534e-160
0.609 	1.9159e-160
0.6097 	1.30646e-160
0.6104 	9.77466e-161
0.6111 	8.58805e-161
0.6118 	7.40004e-161
0.6125 	6.21165e-161
0.6132 	5.02326e-161
0.6139 	3.83488e-161
0.6146 	2.64649e-161
0.6153 	1.8711e-161
0.616 	1.64636e-161
0.6167 	1.4214e-161
0.6174 	1.19632e-161
0.6181 	9.71241e-162
0.6188 	7.4616e-162
0.6195 	5.2108e-162
0.6202 	3.4848e-162
0.6216 	2.65652e-162
0.623 	1.82726e-162
0.6237 	1.41263e-162
0.6244 	9.98005e-163
0.6251 	6.32004e-163
0.6258 	5.57774e-163
0.6265 	4.83501e-163
0.6272 	4.0915e-163
0.6279 	3.34799e-163
0.6286 	2.60449e-163
0.6293 	1.86098e-163
0.63 	1.11747e-163
0.6307 	9.87738e-164
0.6314 	8.57957e-164
0.6321 	7.28006e-164
0.6328 	5.98056e-164
0.6335 	4.68105e-164
0.6342 	3.38154e-164
0.6349 	2.08203e-164
0.6356 	1.70679e-164
0.637 	1.26399e-164
0.6377 	1.04241e-164
0.6384 	8.20835e-165
0.6391 	5.99258e-165
0.6398 	3.77681e-165
0.6405 	2.88068e-165
0.6412 	2.51239e-165
0.6419 	2.14351e-165
0.6426 	1.77458e-165
0.6433 	1.40564e-165
0.644 	1.03671e-165
0.6447 	6.6778e-166
0.6454 	4.75409e-166
0.6468 	3.55423e-166
0.6475 	2.95364e-166
0.6482 	2.35306e-166
0.6489 	1.75247e-166
0.6496 	1.15188e-166
0.6503 	7.67768e-167
0.651 	6.72281e-167
0.6517 	5.76681e-167
0.6524 	4.81018e-167
0.6531 	3.85355e-167
0.6538 	2.89692e-167
0.6545 	1.94029e-167
0.6552 	1.21442e-167
0.6566 	9.16398e-168
0.6573 	7.67174e-168
0.658 	6.17949e-168
0.6587 	4.68725e-168
0.6594 	3.19501e-168
0.6601 	1.88341e-168
0.6608 	1.65564e-168
0.6615 	1.42772e-168
0.6622 	1.19952e-168
0.6629 	9.71313e-169
0.6636 	7.43107e-169
0.6643 	5.14901e-169
0.665 	2.86696e-169
0.6657 	2.5251e-169
0.6664 	2.18309e-169
0.6671 	1.84055e-169
0.6678 	1.49801e-169
0.6685 	1.15546e-169
0.6692 	8.12921e-170
0.6699 	4.70378e-170
0.6706 	3.78246e-170
0.6713 	3.27843e-170
0.672 	2.77344e-170
0.6727 	2.26844e-170
0.6734 	1.76345e-170
0.6741 	1.25846e-170
0.6748 	7.53464e-171
0.6755 	5.5701e-171
0.6762 	4.83971e-171
0.6769 	4.1079e-171
0.6776 	3.37598e-171
0.6783 	2.64405e-171
0.679 	1.91213e-171
0.6797 	1.1802e-171
0.6804 	8.06994e-172
0.6811 	7.02818e-172
0.6818 	5.98466e-172
0.6832 	3.89664e-172
0.6839 	2.85263e-172
0.6846 	1.80862e-172
0.6853 	1.14932e-172
0.686 	1.00295e-172
0.6867 	8.56379e-173
0.6874 	7.0969e-173
0.6881 	5.63001e-173
0.6888 	4.16312e-173
0.6895 	2.69623e-173
0.6902 	1.59079e-173
0.6909 	1.38896e-173
0.6916 	1.1869e-173
0.6923 	9.84616e-174
0.693 	7.82327e-174
0.6937 	5.80039e-174
0.6944 	3.77751e-174
0.6951 	2.00684e-174
0.6958 	1.7495e-174
0.6972 	1.24426e-174
0.6979 	9.93876e-175
0.6986 	7.43493e-175
0.6993 	4.93111e-175
0.7 	2.42728e-175
