0 	1
0.0007 	1
0.0014 	1
0.0021 	1
0.0028 	1
0.0035 	1
0.0042 	1
0.0049 	1
0.0056 	1
0.0063 	1
0.007 	1
0.0077 	1
0.0084 	1
0.0091 	1
0.0098 	1
0.0105 	1
0.0112 	1
0.0119 	1
0.0126 	1
0.0133 	1
0.014 	1
0.0147 	1
0.0154 	1
0.0161 	1
0.0168 	1
0.0175 	1
0.0182 	1
0.0189 	1
0.0196 	1
0.0203 	1
0.021 	1
0.0217 	1
0.0224 	1
0.0231 	1
0.0238 	1
0.0245 	1
0.0252 	1
0.0259 	1
0.0266 	1
0.0273 	1
0.028 	1
0.0287 	1
0.0294 	1
0.0301 	1
0.0308 	1
0.0315 	1
0.0322 	1
0.0329 	1
0.0336 	1
0.0343 	1
0.035 	1
0.0357 	1
0.0364 	1
0.0371 	1
0.0378 	1
0.0385 	1
0.0392 	1
0.0399 	1
0.0406 	1
0.0413 	1
0.042 	1
0.0427 	1
0.0434 	1
0.0441 	1
0.0448 	1
0.0455 	1
0.0462 	1
0.0469 	1
0.0476 	1
0.0483 	1
0.049 	1
0.0497 	1
0.0504 	1
0.0511 	1
0.0518 	1
0.0525 	1
0.0532 	1
0.0539 	1
0.0546 	1
0.0553 	1
0.056 	1
0.0567 	1
0.0574 	1
0.0581 	1
0.0588 	1
0.0595 	1
0.0602 	1
0.0609 	1
0.0616 	1
0.0623 	1
0.063 	1
0.0637 	1
0.0644 	1
0.0651 	1
0.0658 	1
0.0665 	1
0.0672 	1
0.0679 	1
0.0686 	1
0.0693 	1
0.07 	1
0.0707 	1
0.0714 	1
0.0721 	1
0.0728 	1
0.0735 	1
0.0742 	1
0.0749 	1
0.0756 	1
0.0763 	1
0.077 	1
0.0777 	1
0.0784 	1
0.0791 	1
0.0798 	1
0.0805 	1
0.0812 	1
0.0819 	1
0.0826 	1
0.0833 	1
0.084 	1
0.0847 	1
0.0854 	1
0.0861 	1
0.0868 	1
0.0875 	1
0.0882 	1
0.0889 	1
0.0896 	1
0.0903 	1
0.091 	1
0.0917 	1
0.0924 	1
0.0931 	1
0.0938 	1
0.0945 	1
0.0952 	1
0.0959 	1
0.0966 	1
0.0973 	1
0.098 	1
0.0987 	1
0.0994 	1
0.1001 	1
0.1008 	1
0.1015 	1
0.1022 	1
0.1029 	1
0.1036 	1
0.1043 	1
0.105 	1
0.1057 	1
0.1064 	1
0.1071 	1
0.1078 	1
0.1085 	1
0.1092 	1
0.1099 	1
0.1106 	1
0.1113 	1
0.112 	1
0.1127 	1
0.1134 	1
0.1141 	1
0.1148 	1
0.1155 	1
0.1162 	1
0.1169 	1
0.1176 	1
0.1183 	1
0.119 	1
0.1197 	1
0.1204 	1
0.1211 	1
0.1218 	1
0.1225 	1
0.1232 	1
0.1239 	1
0.1246 	1
0.1253 	1
0.126 	1
0.1267 	1
0.1274 	1
0.1281 	1
0.1288 	1
0.1295 	1
0.1302 	1
0.1309 	1
0.1316 	1
0.1323 	1
0.133 	1
0.1337 	1
0.1344 	1
0.1351 	1
0.1358 	1
0.1365 	1
0.1372 	1
0.1379 	1
0.1386 	1
0.1393 	1
0.14 	1
0.1407 	1
0.1414 	1
0.1421 	1
0.1428 	1
0.1435 	1
0.1442 	1
0.1449 	1
0.1456 	1
0.1463 	1
0.147 	1
0.1477 	1
0.1484 	1
0.1491 	1
0.1498 	1
0.1505 	1
0.1512 	1
0.1519 	1
0.1526 	1
0.1533 	1
0.154 	1
0.1547 	1
0.1554 	1
0.1561 	1
0.1568 	1
0.1575 	1
0.1582 	1
0.1589 	1
0.1596 	1
0.1603 	1
0.161 	1
0.1617 	1
0.1624 	1
0.1631 	1
0.1638 	1
0.1645 	1
0.1652 	1
0.1659 	1
0.1666 	1
0.1673 	1
0.168 	1
0.1687 	1
0.1694 	1
0.1701 	1
0.1708 	1
0.1715 	1
0.1722 	1
0.1729 	1
0.1736 	1
0.1743 	1
0.175 	1
0.1757 	1
0.1764 	1
0.1771 	1
0.1778 	1
0.1785 	1
0.1792 	1
0.1799 	1
0.1806 	1
0.1813 	1
0.182 	1
0.1827 	1
0.1834 	1
0.1841 	1
0.1848 	1
0.1855 	1
0.1862 	1
0.1869 	1
0.1876 	1
0.1883 	1
0.189 	1
0.1897 	1
0.1904 	1
0.1911 	1
0.1918 	1
0.1925 	1
0.1932 	1
0.1939 	1
0.1946 	1
0.1953 	1
0.196 	1
0.1967 	1
0.1974 	1
0.1981 	1
0.1988 	1
0.1995 	1
0.2002 	1
0.2009 	1
0.2016 	1
0.2023 	1
0.203 	1
0.2037 	1
0.2044 	1
0.2051 	1
0.2058 	1
0.2065 	1
0.2072 	1
0.2079 	1
0.2086 	1
0.2093 	1
0.21 	1
0.2107 	1
0.2114 	1
0.2121 	1
0.2128 	1
0.2135 	1
0.2142 	1
0.2149 	1
0.2156 	1
0.2163 	1
0.217 	1
0.2177 	1
0.2184 	1
0.2191 	1
0.2198 	1
0.2205 	1
0.2212 	1
0.2219 	1
0.2226 	1
0.2233 	1
0.224 	1
0.2247 	1
0.2254 	1
0.2261 	1
0.2268 	1
0.2275 	1
0.2282 	1
0.2289 	1
0.2296 	1
0.2303 	1
0.231 	1
0.2317 	1
0.2324 	1
0.2331 	1
0.2338 	1
0.2345 	1
0.2352 	1
0.2359 	1
0.2366 	1
0.2373 	1
0.238 	1
0.2387 	1
0.2394 	1
0.2401 	1
0.2408 	1
0.2415 	1
0.2422 	1
0.2429 	1
0.2436 	1
0.2443 	1
0.245 	1
0.2457 	1
0.2464 	1
0.2471 	1
0.2478 	1
0.2485 	1
0.2492 	1
0.2499 	1
0.2506 	1
0.2513 	1
0.252 	1
0.2527 	0.999999
0.2534 	0.999999
0.2541 	0.999999
0.2548 	0.999999
0.2555 	0.999966
0.2562 	0.999905
0.2569 	0.999845
0.2576 	0.999784
0.2583 	0.999724
0.259 	0.999664
0.2597 	0.999603
0.2604 	0.998397
0.2611 	0.995483
0.2618 	0.992569
0.2625 	0.989657
0.2632 	0.986744
0.2639 	0.983831
0.2646 	0.980918
0.2653 	0.971818
0.266 	0.944466
0.2667 	0.917118
0.2674 	0.889772
0.2681 	0.862426
0.2688 	0.83508
0.2695 	0.807735
0.2702 	0.774346
0.2709 	0.713386
0.2716 	0.652427
0.2723 	0.591469
0.273 	0.53051
0.2737 	0.469552
0.2744 	0.408593
0.2751 	0.340258
0.2758 	0.296879
0.2765 	0.254546
0.2772 	0.212209
0.2779 	0.169872
0.2786 	0.127536
0.2793 	0.0851991
0.28 	0.0476828
0.2807 	0.038612
0.2814 	0.032503
0.2821 	0.0263917
0.2828 	0.0202805
0.2835 	0.0141692
0.2842 	0.00805801
0.2849 	0.00209496
0.2856 	0.00167224
0.2863 	0.00141758
0.287 	0.00116282
0.2877 	0.000908049
0.2884 	0.000653282
0.2891 	0.000398515
0.2898 	0.000143748
0.2905 	9.23893e-05
0.2912 	7.85113e-05
0.2919 	6.46264e-05
0.2926 	5.0741e-05
0.2933 	3.68556e-05
0.294 	2.29702e-05
0.2947 	9.08477e-06
0.2954 	4.48216e-06
0.2961 	3.79683e-06
0.2968 	3.11118e-06
0.2975 	2.42544e-06
0.2982 	1.73971e-06
0.2989 	1.05397e-06
0.2996 	3.68236e-07
0.3003 	7.66979e-08
0.301 	6.5017e-08
0.3017 	5.33337e-08
0.3024 	4.1649e-08
0.3031 	2.99643e-08
0.3038 	1.82796e-08
0.3045 	6.59489e-09
0.3052 	2.05992e-10
0.3059 	1.76485e-10
0.3066 	1.46978e-10
0.3073 	1.17472e-10
0.308 	8.79646e-11
0.3087 	5.84577e-11
0.3094 	2.89507e-11
0.3101 	8.85834e-12
0.3108 	9.18179e-12
0.3115 	9.50095e-12
0.3122 	9.81894e-12
0.3129 	1.01369e-11
0.3136 	1.04549e-11
0.3143 	1.07729e-11
0.315 	1.10653e-11
0.3157 	1.09913e-11
0.3164 	1.0848e-11
0.3171 	1.0705e-11
0.3178 	1.0562e-11
0.3185 	1.0419e-11
0.3192 	1.0276e-11
0.3199 	1.01273e-11
0.3206 	9.69209e-12
0.3213 	9.19859e-12
0.322 	8.70613e-12
0.3227 	8.21368e-12
0.3234 	7.72122e-12
0.3241 	7.22877e-12
0.3248 	6.73631e-12
0.3255 	6.21468e-12
0.3262 	5.73351e-12
0.3269 	5.25342e-12
0.3276 	4.77341e-12
0.3283 	4.2934e-12
0.329 	3.8134e-12
0.3297 	3.33339e-12
0.3304 	2.94947e-12
0.3311 	2.66932e-12
0.3318 	2.38968e-12
0.3325 	2.11019e-12
0.3332 	1.83069e-12
0.3339 	1.5512e-12
0.3346 	1.27171e-12
0.3353 	1.05766e-12
0.336 	9.41888e-13
0.3367 	8.26286e-13
0.3374 	7.10779e-13
0.3381 	5.95272e-13
0.3388 	4.79766e-13
0.3395 	3.64259e-13
0.3402 	2.73792e-13
0.3409 	2.40652e-13
0.3416 	2.07551e-13
0.3423 	1.74489e-13
0.343 	1.41427e-13
0.3437 	1.08365e-13
0.3444 	7.53032e-14
0.3451 	4.81804e-14
0.3458 	4.16506e-14
0.3465 	3.54795e-14
0.3472 	2.9318e-14
0.3479 	2.31564e-14
0.3486 	1.69948e-14
0.3493 	1.08332e-14
0.35 	5.49942e-15
0.3507 	4.52787e-15
0.3514 	3.82375e-15
0.3521 	3.12098e-15
0.3528 	2.41821e-15
0.3535 	1.71544e-15
0.3542 	1.01267e-15
0.3549 	3.30957e-16
0.3556 	2.63173e-16
0.3563 	2.21233e-16
0.357 	1.79391e-16
0.3577 	1.37549e-16
0.3584 	9.57066e-17
0.3591 	5.38645e-17
0.3598 	1.20225e-17
0.3605 	5.9628e-18
0.3612 	5.01306e-18
0.3619 	4.06566e-18
0.3626 	3.11844e-18
0.3633 	2.17123e-18
0.364 	1.22401e-18
0.3647 	2.76796e-19
0.3654 	3.19425e-20
0.3661 	2.69387e-20
0.3668 	2.19462e-20
0.3675 	1.69569e-20
0.3682 	1.19675e-20
0.3689 	6.97816e-21
0.3696 	1.98881e-21
0.3703 	2.46127e-23
0.371 	2.0837e-23
0.3717 	1.70691e-23
0.3724 	1.33056e-23
0.3731 	9.54211e-24
0.3738 	5.7786e-24
0.3745 	2.01509e-24
0.3752 	1.94932e-27
0.3759 	1.65663e-27
0.3766 	1.36444e-27
0.3773 	1.07274e-27
0.378 	7.81045e-28
0.3787 	4.89348e-28
0.3794 	1.97651e-28
0.3801 	1.4111e-31
0.3808 	1.15198e-31
0.3815 	9.53725e-32
0.3822 	7.5585e-32
0.3829 	5.57976e-32
0.3836 	3.60101e-32
0.3843 	1.62226e-32
0.385 	1.14685e-35
0.3857 	8.14607e-36
0.3864 	6.77746e-36
0.3871 	5.41161e-36
0.3878 	4.04576e-36
0.3885 	2.6799e-36
0.3892 	1.31405e-36
0.3899 	7.36301e-40
0.3906 	5.53514e-40
0.3913 	4.62684e-40
0.392 	3.72038e-40
0.3927 	2.81392e-40
0.3934 	1.90746e-40
0.3941 	1.001e-40
0.3948 	9.45392e-42
0.3955 	3.60725e-44
0.3962 	3.0289e-44
0.3969 	2.45152e-44
0.3976 	1.87422e-44
0.3983 	1.29692e-44
0.399 	7.19619e-45
0.3997 	1.42319e-45
0.4004 	2.26184e-48
0.4011 	1.90737e-48
0.4018 	1.55333e-48
0.4025 	1.19939e-48
0.4032 	8.4546e-49
0.4039 	4.91528e-49
0.4046 	1.37595e-49
0.4053 	1.37506e-52
0.406 	1.16432e-52
0.4067 	9.53739e-53
0.4074 	7.43247e-53
0.4081 	5.32755e-53
0.4088 	3.22263e-53
0.4095 	1.11772e-53
0.4102 	8.17681e-57
0.4109 	6.95064e-57
0.4116 	5.72502e-57
0.4123 	4.49996e-57
0.413 	3.2749e-57
0.4137 	2.04984e-57
0.4144 	8.24774e-58
0.4151 	5.03942e-61
0.4158 	4.08912e-61
0.4165 	3.38575e-61
0.4172 	2.68265e-61
0.4179 	1.97956e-61
0.4186 	1.27647e-61
0.4193 	5.73375e-62
0.42 	3.42031e-65
0.4207 	2.3842e-65
0.4214 	1.98392e-65
0.4221 	1.58376e-65
0.4228 	1.18359e-65
0.4235 	7.83426e-66
0.4242 	3.83262e-66
0.4249 	1.86027e-69
0.4256 	1.38211e-69
0.4263 	1.15549e-69
0.427 	9.28919e-70
0.4277 	7.02343e-70
0.4284 	4.75767e-70
0.4291 	2.49191e-70
0.4298 	2.26151e-71
0.4305 	2.82204e-74
0.4312 	6.78318e-75
0.4319 	-6.62702e-75
0.4326 	-1.94198e-74
0.4333 	-3.22125e-74
0.434 	-4.50052e-74
0.4347 	-5.7798e-74
0.4354 	-6.10781e-74
0.4361 	-6.15387e-74
0.4368 	-6.16423e-74
0.4375 	-6.16485e-74
0.4382 	-6.16548e-74
0.4389 	-6.1661e-74
0.4396 	-6.16673e-74
0.4403 	-6.05905e-74
0.441 	-5.61139e-74
0.4417 	-5.45121e-74
0.4424 	-5.45073e-74
0.4431 	-5.45024e-74
0.4438 	-5.44976e-74
0.4445 	-5.44928e-74
0.4452 	-5.38493e-74
0.4459 	-4.73407e-74
0.4466 	-4.40814e-74
0.4473 	-4.40713e-74
0.448 	-4.40612e-74
0.4487 	-4.40512e-74
0.4494 	-4.40411e-74
0.4501 	-5.02197e-74
0.4508 	-3.76489e-74
0.4515 	-3.33479e-74
0.4522 	-3.33369e-74
0.4529 	-3.33258e-74
0.4536 	-3.33148e-74
0.4543 	-3.33037e-74
0.455 	-5.34213e-74
0.4557 	-2.84952e-74
0.4564 	-2.38488e-74
0.4571 	-2.38387e-74
0.4578 	-2.38286e-74
0.4585 	-2.38185e-74
0.4592 	-2.38084e-74
0.4599 	-2.74937e-74
0.4606 	-2.06211e-74
0.4613 	-1.62075e-74
0.462 	-1.61992e-74
0.4627 	-1.61908e-74
0.4634 	-1.61825e-74
0.4641 	-1.61742e-74
0.4648 	-1.61659e-74
0.4655 	-1.43009e-74
0.4662 	-1.07521e-74
0.4669 	-1.04926e-74
0.4676 	-1.04862e-74
0.4683 	-1.04798e-74
0.469 	-1.04734e-74
0.4697 	-1.0467e-74
0.4704 	-9.51551e-75
0.4711 	-7.02832e-75
0.4718 	-6.49171e-75
0.4725 	-6.48707e-75
0.4732 	-6.48244e-75
0.4739 	-6.4778e-75
0.4746 	-6.47317e-75
0.4753 	-6.07857e-75
0.476 	-4.43232e-75
0.4767 	-3.84233e-75
0.4774 	-3.83915e-75
0.4781 	-3.83597e-75
0.4788 	-3.83279e-75
0.4795 	-3.82961e-75
0.4802 	-3.72946e-75
0.4809 	-2.69616e-75
0.4816 	-2.17847e-75
0.4823 	-2.17639e-75
0.483 	-2.17432e-75
0.4837 	-2.17225e-75
0.4844 	-2.17017e-75
0.4851 	-2.59055e-75
0.4858 	-1.58144e-75
0.4865 	-1.18436e-75
0.4872 	-1.18308e-75
0.4879 	-1.18179e-75
0.4886 	-1.1805e-75
0.4893 	-1.17921e-75
0.49 	-2.09806e-75
0.4907 	-8.94135e-76
0.4914 	-6.18008e-76
0.4921 	-6.17244e-76
0.4928 	-6.1648e-76
0.4935 	-6.15716e-76
0.4942 	-6.14952e-76
0.4949 	-7.44301e-76
0.4956 	-4.87166e-76
0.4963 	-3.09828e-76
0.497 	-3.09394e-76
0.4977 	-3.0896e-76
0.4984 	-3.08526e-76
0.4991 	-3.08092e-76
0.4998 	-3.07658e-76
0.5005 	-2.5577e-76
0.5012 	-1.56473e-76
0.5019 	-1.49161e-76
0.5026 	-1.48925e-76
0.5033 	-1.48689e-76
0.504 	-1.48453e-76
0.5047 	-1.48216e-76
0.5054 	-1.29414e-76
0.5061 	-7.99385e-77
0.5068 	-6.92394e-77
0.5075 	-6.91159e-77
0.5082 	-6.89924e-77
0.5089 	-6.88688e-77
0.5096 	-6.87453e-77
0.5103 	-6.31243e-77
0.511 	-3.94702e-77
0.5117 	-3.09824e-77
0.5124 	-3.09203e-77
0.5131 	-3.08582e-77
0.5138 	-3.07962e-77
0.5145 	-3.07341e-77
0.5152 	-2.96974e-77
0.5159 	-1.88308e-77
0.5166 	-1.33825e-77
0.5173 	-1.33525e-77
0.518 	-1.33225e-77
0.5187 	-1.32925e-77
0.5194 	-1.32626e-77
0.5201 	-1.66802e-77
0.5208 	-8.68161e-78
0.5215 	-5.58769e-78
0.5222 	-5.57375e-78
0.5229 	-5.5598e-78
0.5236 	-5.54586e-78
0.5243 	-5.53191e-78
0.525 	-1.09623e-77
0.5257 	-3.86934e-78
0.5264 	-2.25828e-78
0.5271 	-2.25203e-78
0.5278 	-2.24577e-78
0.5285 	-2.23952e-78
0.5292 	-2.23327e-78
0.5299 	-2.85291e-78
0.5306 	-1.66805e-78
0.5313 	-8.84375e-79
0.532 	-8.81667e-79
0.5327 	-8.78959e-79
0.5334 	-8.76251e-79
0.5341 	-8.73542e-79
0.5348 	-8.70834e-79
0.5355 	-6.95883e-79
0.5362 	-3.59707e-79
0.5369 	-3.34642e-79
0.5376 	-3.33509e-79
0.5383 	-3.32375e-79
0.539 	-3.31242e-79
0.5397 	-3.30108e-79
0.5404 	-2.81025e-79
0.5411 	-1.51371e-79
0.5418 	-1.23228e-79
0.5425 	-1.22769e-79
0.5432 	-1.2231e-79
0.5439 	-1.21852e-79
0.5446 	-1.21393e-79
0.5453 	-1.09916e-79
0.546 	-6.14802e-80
0.5467 	-4.40663e-80
0.5474 	-4.38866e-80
0.5481 	-4.3707e-80
0.5488 	-4.35273e-80
0.5495 	-4.33477e-80
0.5502 	-4.1671e-80
0.5509 	-2.41276e-80
0.5516 	-1.53218e-80
0.5523 	-1.52537e-80
0.553 	-1.51856e-80
0.5537 	-1.51175e-80
0.5544 	-1.50494e-80
0.5551 	-2.00527e-80
0.5558 	-9.16013e-81
0.5565 	-5.18454e-81
0.5572 	-5.1595e-81
0.5579 	-5.13445e-81
0.5586 	-5.10941e-81
0.5593 	-5.08436e-81
0.56 	-1.12323e-80
0.5607 	-3.36754e-81
0.5614 	-1.70759e-81
0.5621 	-1.69866e-81
0.5628 	-1.68972e-81
0.5635 	-1.68078e-81
0.5642 	-1.67184e-81
0.5649 	-2.26754e-81
0.5656 	-1.19961e-81
0.5663 	-5.47815e-82
0.567 	-5.44719e-82
0.5677 	-5.41622e-82
0.5684 	-5.38526e-82
0.5691 	-5.3543e-82
0.5698 	-5.32333e-82
0.5705 	-4.14526e-82
0.5712 	-1.87559e-82
0.5719 	-1.7038e-82
0.5726 	-1.69338e-82
0.5733 	-1.68297e-82
0.574 	-1.67255e-82
0.5747 	-1.66213e-82
0.5754 	-1.39164e-82
0.5761 	-6.76273e-83
0.5768 	-5.20303e-83
0.5775 	-5.16894e-83
0.5782 	-5.13486e-83
0.5789 	-5.10077e-83
0.5796 	-5.06669e-83
0.5803 	-4.54429e-83
0.581 	-2.34444e-83
0.5817 	-1.55179e-83
0.5824 	-1.54093e-83
0.5831 	-1.53007e-83
0.5838 	-1.5192e-83
0.5845 	-1.50834e-83
0.5852 	-1.44423e-83
0.5859 	-7.84041e-84
0.5866 	-4.5226e-84
0.5873 	-4.48885e-84
0.588 	-4.45511e-84
0.5887 	-4.42137e-84
0.5894 	-4.38763e-84
0.5901 	-6.25744e-84
0.5908 	-2.53646e-84
0.5915 	-1.28935e-84
0.5922 	-1.27914e-84
0.5929 	-1.26892e-84
0.5936 	-1.25871e-84
0.5943 	-1.24849e-84
0.595 	-3.11023e-84
0.5957 	-7.95752e-85
0.5964 	-3.5984e-85
0.5971 	-3.56821e-85
0.5978 	-3.53803e-85
0.5985 	-3.50784e-85
0.5992 	-3.47766e-85
0.5999 	-5.05927e-85
0.6006 	-2.42556e-85
0.6013 	-9.83554e-86
0.602 	-9.74839e-86
0.6027 	-9.66124e-86
0.6034 	-9.57409e-86
0.6041 	-9.48694e-86
0.6048 	-9.3998e-86
0.6055 	-7.19391e-86
0.6062 	-2.93673e-86
0.6069 	-2.60981e-86
0.6076 	-2.58521e-86
0.6083 	-2.56062e-86
0.609 	-2.53603e-86
0.6097 	-2.51143e-86
0.6104 	-2.0789e-86
0.6111 	-9.35471e-87
0.6118 	-6.85116e-87
0.6125 	-6.78327e-87
0.6132 	-6.71538e-87
0.6139 	-6.6475e-87
0.6146 	-6.57961e-87
0.6153 	-5.86117e-87
0.616 	-2.85126e-87
0.6167 	-1.7645e-87
0.6174 	-1.74616e-87
0.6181 	-1.72781e-87
0.6188 	-1.70946e-87
0.6195 	-1.69112e-87
0.6202 	-1.61387e-87
0.6209 	-8.36897e-88
0.6216 	-4.45983e-88
0.6223 	-4.41126e-88
0.623 	-4.3627e-88
0.6237 	-4.31413e-88
0.6244 	-4.26556e-88
0.6251 	-6.56932e-88
0.6258 	-2.37588e-88
0.6265 	-1.1066e-88
0.6272 	-1.094e-88
0.6279 	-1.0814e-88
0.6286 	-1.0688e-88
0.6293 	-1.0562e-88
0.63 	-2.98665e-88
0.6307 	-6.54446e-89
0.6314 	-2.69672e-89
0.6321 	-2.66467e-89
0.6328 	-2.63263e-89
0.6335 	-2.60058e-89
0.6342 	-2.56853e-89
0.6349 	-4.04367e-89
0.6356 	-1.75349e-89
0.6363 	-6.45773e-90
0.637 	-6.37777e-90
0.6377 	-6.29781e-90
0.6384 	-6.21784e-90
0.6391 	-6.13788e-90
0.6398 	-6.05792e-90
0.6405 	-4.57932e-90
0.6412 	-1.72287e-90
0.6419 	-1.50065e-90
0.6426 	-1.48107e-90
0.6433 	-1.46148e-90
0.644 	-1.4419e-90
0.6447 	-1.42231e-90
0.6454 	-1.16752e-90
0.6461 	-4.95073e-91
0.6468 	-3.47275e-91
0.6475 	-3.42564e-91
0.6482 	-3.37853e-91
0.6489 	-3.33142e-91
0.6496 	-3.28431e-91
0.6503 	-2.90999e-91
0.651 	-1.35366e-91
0.6517 	-7.90675e-92
0.6524 	-7.79538e-92
0.6531 	-7.68402e-92
0.6538 	-7.57265e-92
0.6545 	-7.46128e-92
0.6552 	-7.09823e-92
0.6559 	-3.55567e-92
0.6566 	-1.77144e-92
0.6573 	-1.74556e-92
0.658 	-1.71967e-92
0.6587 	-1.69379e-92
0.6594 	-1.6679e-92
0.6601 	-2.79956e-92
0.6608 	-9.02566e-93
0.6615 	-3.90509e-93
0.6622 	-3.84592e-93
0.6629 	-3.78676e-93
0.6636 	-3.72759e-93
0.6643 	-3.66842e-93
0.665 	-1.18617e-92
0.6657 	-2.22254e-93
0.6664 	-8.46897e-94
0.6671 	-8.33595e-94
0.6678 	-8.20294e-94
0.6685 	-8.06993e-94
0.6692 	-7.93692e-94
0.6699 	-1.36298e-93
0.6706 	-5.32283e-94
0.6713 	-1.80638e-94
0.672 	-1.77698e-94
0.6727 	-1.74757e-94
0.6734 	-1.71817e-94
0.6741 	-1.68877e-94
0.6748 	-1.65936e-94
0.6755 	-1.24196e-94
0.6762 	-4.35874e-95
0.6769 	-3.72363e-95
0.6776 	-3.65972e-95
0.6783 	-3.59582e-95
0.679 	-3.53191e-95
0.6797 	-3.46801e-95
0.6804 	-2.82578e-95
0.6811 	-1.13799e-95
0.6818 	-7.65585e-96
0.6825 	-7.5193e-96
0.6832 	-7.38274e-96
0.6839 	-7.24619e-96
0.6846 	-7.10963e-96
0.6853 	-6.26277e-96
0.686 	-2.78703e-96
0.6867 	-1.52724e-96
0.6874 	-1.49854e-96
0.6881 	-1.46984e-96
0.6888 	-1.44113e-96
0.6895 	-1.41243e-96
0.6902 	-1.33693e-96
0.6909 	-6.33284e-97
0.6916 	-2.78495e-97
0.6923 	-2.72563e-97
0.693 	-2.66632e-97
0.6937 	-2.607e-97
0.6944 	-2.54768e-97
0.6951 	-4.67731e-97
0.6958 	-1.05934e-97
0.6965 	-6.67405e-99
0.6972 	-5.5389e-99
0.6979 	-4.40374e-99
0.6986 	-3.26858e-99
0.6993 	-2.13342e-99
0.7 	-1.01213e-99
