0 	1
0.0007 	1
0.0014 	1
0.0021 	1
0.0028 	1
0.0035 	1
0.0042 	1
0.0049 	1
0.0056 	1
0.0063 	1
0.007 	1
0.0077 	1
0.0084 	1
0.0091 	1
0.0098 	1
0.0105 	1
0.0112 	1
0.0119 	1
0.0126 	1
0.0133 	1
0.014 	1
0.0147 	1
0.0154 	1
0.0161 	1
0.0168 	1
0.0175 	1
0.0182 	1
0.0189 	1
0.0196 	1
0.0203 	1
0.021 	1
0.0217 	1
0.0224 	1
0.0231 	1
0.0238 	1
0.0245 	1
0.0252 	1
0.0259 	1
0.0266 	1
0.0273 	1
0.028 	1
0.0287 	1
0.0294 	1
0.0301 	1
0.0308 	1
0.0315 	1
0.0322 	1
0.0329 	1
0.0336 	1
0.0343 	1
0.035 	1
0.0357 	1
0.0364 	1
0.0371 	1
0.0378 	1
0.0385 	1
0.0392 	1
0.0399 	1
0.0406 	1
0.0413 	1
0.042 	1
0.0427 	1
0.0434 	1
0.0441 	1
0.0448 	1
0.0455 	1
0.0462 	1
0.0469 	1
0.0476 	1
0.0483 	1
0.049 	1
0.0497 	1
0.0504 	1
0.0511 	1
0.0518 	1
0.0525 	1
0.0532 	1
0.0539 	1
0.0546 	1
0.0553 	1
0.056 	1
0.0567 	1
0.0574 	1
0.0581 	1
0.0588 	1
0.0595 	1
0.0602 	1
0.0609 	1
0.0616 	1
0.0623 	1
0.063 	1
0.0637 	1
0.0644 	1
0.0651 	1
0.0658 	1
0.0665 	1
0.0672 	1
0.0679 	1
0.0686 	1
0.0693 	1
0.07 	1
0.0707 	1
0.0714 	1
0.0721 	1
0.0728 	1
0.0735 	1
0.0742 	1
0.0749 	1
0.0756 	1
0.0763 	1
0.077 	1
0.0777 	1
0.0784 	1
0.0791 	1
0.0798 	1
0.0805 	1
0.0812 	1
0.0819 	1
0.0826 	1
0.0833 	1
0.084 	1
0.0847 	1
0.0854 	1
0.0861 	1
0.0868 	1
0.0875 	1
0.0882 	1
0.0889 	1
0.0896 	1
0.0903 	1
0.091 	1
0.0917 	1
0.0924 	1
0.0931 	1
0.0938 	1
0.0945 	1
0.0952 	1
0.0959 	1
0.0966 	1
0.0973 	1
0.098 	1
0.0987 	1
0.0994 	1
0.1001 	1
0.1008 	1
0.1015 	1
0.1022 	1
0.1029 	1
0.1036 	1
0.1043 	1
0.105 	1
0.1057 	1
0.1064 	1
0.1071 	1
0.1078 	1
0.1085 	1
0.1092 	1
0.1099 	1
0.1106 	1
0.1113 	1
0.112 	1
0.1127 	1
0.1134 	1
0.1141 	1
0.1148 	1
0.1155 	1
0.1162 	1
0.1169 	1
0.1176 	1
0.1183 	1
0.119 	1
0.1197 	1
0.1204 	1
0.1211 	1
0.1218 	1
0.1225 	1
0.1232 	1
0.1239 	1
0.1246 	1
0.1253 	1
0.126 	1
0.1267 	1
0.1274 	1
0.1281 	1
0.1288 	1
0.1295 	1
0.1302 	1
0.1309 	1
0.1316 	1
0.1323 	1
0.133 	1
0.1337 	1
0.1344 	1
0.1351 	1
0.1358 	1
0.1365 	1
0.1372 	1
0.1379 	1
0.1386 	1
0.1393 	1
0.14 	1
0.1407 	1
0.1414 	1
0.1421 	1
0.1428 	1
0.1435 	1
0.1442 	1
0.1449 	1
0.1456 	1
0.1463 	1
0.147 	1
0.1477 	1
0.1484 	1
0.1491 	1
0.1498 	1
0.1505 	1
0.1512 	1
0.1519 	1
0.1526 	1
0.1533 	1
0.154 	1
0.1547 	1
0.1554 	1
0.1561 	1
0.1568 	1
0.1575 	1
0.1582 	1
0.1589 	1
0.1596 	1
0.1603 	1
0.161 	1
0.1617 	1
0.1624 	1
0.1631 	1
0.1638 	1
0.1645 	1
0.1652 	1
0.1659 	1
0.1666 	1
0.1673 	1
0.168 	1
0.1687 	1
0.1694 	1
0.1701 	1
0.1708 	1
0.1715 	1
0.1722 	1
0.1729 	1
0.1736 	1
0.1743 	1
0.175 	1
0.1757 	1
0.1764 	1
0.1771 	1
0.1778 	1
0.1785 	1
0.1792 	1
0.1799 	1
0.1806 	1
0.1813 	1
0.182 	1
0.1827 	1
0.1834 	1
0.1841 	1
0.1848 	1
0.1855 	1
0.1862 	1
0.1869 	1
0.1876 	1
0.1883 	1
0.189 	1
0.1897 	1
0.1904 	1
0.1911 	1
0.1918 	1
0.1925 	1
0.1932 	1
0.1939 	1
0.1946 	1
0.1953 	1
0.196 	1
0.1967 	1
0.1974 	1
0.1981 	1
0.1988 	1
0.1995 	1
0.2002 	1
0.2009 	1
0.2016 	1
0.2023 	1
0.203 	1
0.2037 	1
0.2044 	1
0.2051 	1
0.2058 	1
0.2065 	1
0.2072 	1
0.2079 	1
0.2086 	1
0.2093 	1
0.21 	1
0.2107 	1
0.2114 	1
0.2121 	1
0.2128 	1
0.2135 	1
0.2142 	1
0.2149 	1
0.2156 	1
0.2163 	1
0.217 	1
0.2177 	1
0.2184 	1
0.2191 	1
0.2198 	1
0.2205 	1
0.2212 	1
0.2219 	1
0.2226 	1
0.2233 	1
0.224 	1
0.2247 	1
0.2254 	1
0.2261 	1
0.2268 	1
0.2275 	1
0.2282 	1
0.2289 	1
0.2296 	1
0.2303 	1
0.231 	0.999999
0.2317 	0.999999
0.2324 	0.999998
0.2331 	0.999998
0.2338 	0.999997
0.2345 	0.999997
0.2352 	0.999978
0.2359 	0.999913
0.2366 	0.999849
0.2373 	0.999785
0.238 	0.99972
0.2387 	0.999656
0.2394 	0.999592
0.2401 	0.999267
0.2408 	0.997375
0.2415 	0.995483
0.2422 	0.993591
0.2429 	0.991699
0.2436 	0.989807
0.2443 	0.987915
0.245 	0.986023
0.2457 	0.955734
0.2464 	0.925442
0.2471 	0.89515
0.2478 	0.864858
0.2485 	0.834566
0.2492 	0.804275
0.2499 	0.773983
0.2506 	0.715948
0.2513 	0.653294
0.252 	0.59064
0.2527 	0.527986
0.2534 	0.465332
0.2541 	0.402678
0.2548 	0.340024
0.2555 	0.293897
0.2562 	0.254387
0.2569 	0.214876
0.2576 	0.175366
0.2583 	0.135855
0.259 	0.0963442
0.2597 	0.0568335
0.2604 	0.0367884
0.2611 	0.0313353
0.2618 	0.0258821
0.2625 	0.0204288
0.2632 	0.0149755
0.2639 	0.00952227
0.2646 	0.00406899
0.2653 	0.000896592
0.266 	0.000763485
0.2667 	0.000630371
0.2674 	0.000497253
0.2681 	0.000364135
0.2688 	0.000231017
0.2695 	9.78993e-05
0.2702 	2.7227e-06
0.2709 	2.32577e-06
0.2716 	1.92882e-06
0.2723 	1.53184e-06
0.273 	1.13487e-06
0.2737 	7.37894e-07
0.2744 	3.40918e-07
0.2751 	7.02564e-10
0.2758 	6.02215e-10
0.2765 	5.01858e-10
0.2772 	4.01489e-10
0.2779 	3.0112e-10
0.2786 	2.00751e-10
0.2793 	1.00381e-10
0.28 	2.83359e-14
0.2807 	2.43695e-14
0.2814 	2.04031e-14
0.2821 	1.64359e-14
0.2828 	1.24687e-14
0.2835 	8.50155e-15
0.2842 	4.53438e-15
0.2849 	5.67214e-16
0.2856 	9.95565e-19
0.2863 	8.37222e-19
0.287 	6.78832e-19
0.2877 	5.20441e-19
0.2884 	3.62051e-19
0.2891 	2.03661e-19
0.2898 	4.52704e-20
0.2905 	3.83315e-23
0.2912 	3.2371e-23
0.2919 	2.64082e-23
0.2926 	2.04452e-23
0.2933 	1.44821e-23
0.294 	8.51911e-24
0.2947 	2.55608e-24
0.2954 	1.3917e-27
0.2961 	1.18002e-27
0.2968 	9.68244e-28
0.2975 	7.56443e-28
0.2982 	5.44643e-28
0.2989 	3.32843e-28
0.2996 	1.21043e-28
0.3003 	4.79835e-32
0.301 	4.0841e-32
0.3017 	3.36953e-32
0.3024 	2.65479e-32
0.3031 	1.94005e-32
0.3038 	1.22531e-32
0.3045 	5.10569e-33
0.3052 	1.57779e-36
0.3059 	1.34784e-36
0.3066 	1.11781e-36
0.3073 	8.87671e-37
0.308 	6.57537e-37
0.3087 	4.27402e-37
0.3094 	1.97268e-37
0.3101 	4.95262e-41
0.3108 	4.24564e-41
0.3115 	3.53841e-41
0.3122 	2.83073e-41
0.3129 	2.12306e-41
0.3136 	1.41538e-41
0.3143 	7.077e-42
0.315 	1.48194e-45
0.3157 	1.27464e-45
0.3164 	1.0673e-45
0.3171 	8.59768e-46
0.3178 	6.52239e-46
0.3185 	4.44709e-46
0.3192 	2.3718e-46
0.3199 	2.96509e-47
0.3206 	3.63892e-50
0.3213 	3.0606e-50
0.322 	2.48156e-50
0.3227 	1.90253e-50
0.3234 	1.3235e-50
0.3241 	7.44472e-51
0.3248 	1.65441e-51
0.3255 	9.85991e-55
0.3262 	8.32806e-55
0.3269 	6.79408e-55
0.3276 	5.25993e-55
0.3283 	3.72578e-55
0.329 	2.19163e-55
0.3297 	6.57485e-56
0.3304 	2.53345e-59
0.3311 	2.14845e-59
0.3318 	1.76295e-59
0.3325 	1.3773e-59
0.3332 	9.91655e-60
0.3339 	6.06009e-60
0.3346 	2.20363e-60
0.3353 	6.17442e-64
0.336 	5.2562e-64
0.3367 	4.33687e-64
0.3374 	3.41692e-64
0.3381 	2.49697e-64
0.3388 	1.57703e-64
0.3395 	6.5708e-65
0.3402 	1.42895e-68
0.3409 	1.2209e-68
0.3416 	1.01263e-68
0.3423 	8.04148e-69
0.343 	5.95663e-69
0.3437 	3.87178e-69
0.3444 	1.78694e-69
0.3451 	3.14578e-73
0.3458 	2.69717e-73
0.3465 	2.24818e-73
0.3472 	1.79854e-73
0.3479 	1.3489e-73
0.3486 	8.99262e-74
0.3493 	4.49621e-74
0.35 	6.6011e-78
0.3507 	5.67864e-78
0.3514 	4.75571e-78
0.3521 	3.83098e-78
0.3528 	2.90625e-78
0.3535 	1.98152e-78
0.3542 	1.05679e-78
0.3549 	1.32055e-79
0.3556 	1.14187e-82
0.3563 	9.60593e-83
0.357 	7.78857e-83
0.3577 	5.97121e-83
0.3584 	4.15385e-83
0.3591 	2.33649e-83
0.3598 	5.19133e-84
0.3605 	2.19751e-87
0.3612 	1.8565e-87
0.3619 	1.51457e-87
0.3626 	1.17256e-87
0.3633 	8.30558e-88
0.364 	4.88554e-88
0.3647 	1.4655e-88
0.3654 	4.0552e-92
0.3661 	3.43968e-92
0.3668 	2.82263e-92
0.3675 	2.20517e-92
0.3682 	1.58771e-92
0.3689 	9.70249e-93
0.3696 	3.52788e-93
0.3703 	7.18793e-97
0.371 	6.12025e-97
0.3717 	5.05025e-97
0.3724 	3.97897e-97
0.3731 	2.90768e-97
0.3738 	1.8364e-97
0.3745 	7.65115e-98
0.3752 	1.22558e-101
0.3759 	1.04735e-101
0.3766 	8.68799e-102
0.3773 	6.89925e-102
0.378 	5.11052e-102
0.3787 	3.32178e-102
0.3794 	1.53304e-102
0.3801 	2.01264e-106
0.3808 	1.72596e-106
0.3815 	1.43888e-106
0.3822 	1.1511e-106
0.3829 	8.6332e-107
0.3836 	5.75538e-107
0.3843 	2.87755e-107
0.385 	3.18656e-111
0.3857 	2.74179e-111
0.3864 	2.29664e-111
0.3871 	1.85006e-111
0.3878 	1.40349e-111
0.3885 	9.56908e-112
0.3892 	5.1033e-112
0.3899 	6.37524e-113
0.3906 	4.2022e-116
0.3913 	3.5359e-116
0.392 	2.86693e-116
0.3927 	2.19797e-116
0.3934 	1.529e-116
0.3941 	8.60031e-117
0.3948 	1.91064e-117
0.3955 	6.21818e-121
0.3962 	5.25456e-121
0.3969 	4.28685e-121
0.3976 	3.31883e-121
0.3983 	2.35081e-121
0.399 	1.38278e-121
0.3997 	4.14761e-122
0.4004 	8.88906e-126
0.4011 	7.54165e-126
0.4018 	6.18913e-126
0.4025 	4.83522e-126
0.4032 	3.48132e-126
0.4039 	2.12741e-126
0.4046 	7.73505e-127
0.4053 	1.22823e-130
0.406 	1.04603e-130
0.4067 	8.63245e-131
0.4074 	6.80128e-131
0.4081 	4.9701e-131
0.4088 	3.13893e-131
0.4095 	1.30776e-131
0.4102 	1.6411e-135
0.4109 	1.40276e-135
0.4116 	1.16378e-135
0.4123 	9.24174e-136
0.413 	6.84566e-136
0.4137 	4.44957e-136
0.4144 	2.05349e-136
0.4151 	2.10932e-140
0.4158 	1.80978e-140
0.4165 	1.50906e-140
0.4172 	1.20622e-140
0.4179 	9.03391e-141
0.4186 	6.00557e-141
0.4193 	2.97724e-141
0.42 	-5.04463e-143
0.4207 	-5.47734e-143
0.4214 	-5.84397e-143
0.4221 	-5.96765e-143
0.4228 	-6.09132e-143
0.4235 	-6.21499e-143
0.4242 	-6.33866e-143
0.4249 	-6.46233e-143
0.4256 	-5.17346e-143
0.4263 	-3.73035e-143
0.427 	-3.34721e-143
0.4277 	-2.96408e-143
0.4284 	-2.58095e-143
0.4291 	-2.19782e-143
0.4298 	-1.81469e-143
0.4305 	-1.4048e-143
0.4312 	-9.83963e-144
0.4319 	-8.42669e-144
0.4326 	-7.22878e-144
0.4333 	-6.03086e-144
0.434 	-4.83295e-144
0.4347 	-3.63504e-144
0.4354 	-2.67267e-144
0.4361 	-1.88621e-144
0.4368 	-1.53353e-144
0.4375 	-1.29915e-144
0.4382 	-1.06478e-144
0.4389 	-8.30405e-145
0.4396 	-5.96032e-145
0.4403 	-4.11707e-145
0.441 	-2.93933e-145
0.4417 	-2.28681e-145
0.4424 	-1.92609e-145
0.4431 	-1.56537e-145
0.4438 	-1.20466e-145
0.4445 	-8.43937e-146
0.4452 	-5.43406e-146
0.4459 	-3.92947e-146
0.4466 	-2.94205e-146
0.4473 	-2.4718e-146
0.448 	-2.00155e-146
0.4487 	-1.5313e-146
0.4494 	-1.06105e-146
0.4501 	-6.33891e-147
0.4508 	-4.64289e-147
0.4515 	-3.36018e-147
0.4522 	-2.82144e-147
0.4529 	-2.28269e-147
0.4536 	-1.74394e-147
0.4543 	-1.2052e-147
0.455 	-6.66585e-148
0.4557 	-4.94324e-148
0.4564 	-3.4707e-148
0.4571 	-2.91595e-148
0.4578 	-2.36121e-148
0.4585 	-1.80646e-148
0.4592 	-1.25172e-148
0.4599 	-6.96973e-149
0.4606 	-4.80742e-149
0.4613 	-3.28448e-149
0.462 	-2.76322e-149
0.4627 	-2.24197e-149
0.4634 	-1.72072e-149
0.4641 	-1.19947e-149
0.4648 	-6.78218e-150
0.4655 	-4.31388e-150
0.4662 	-2.94117e-150
0.4669 	-2.42355e-150
0.4676 	-1.9717e-150
0.4683 	-1.51985e-150
0.469 	-1.068e-150
0.4697 	-6.16149e-151
0.4704 	-3.59962e-151
0.4711 	-2.50298e-151
0.4718 	-1.98171e-151
0.4725 	-1.61736e-151
0.4732 	-1.25301e-151
0.4739 	-8.88664e-152
0.4746 	-5.24315e-152
0.4753 	-2.81037e-152
0.476 	-1.98948e-152
0.4767 	-1.51948e-152
0.4774 	-1.24443e-152
0.4781 	-9.69372e-153
0.4788 	-6.94317e-153
0.4795 	-4.19262e-153
0.4802 	-2.06337e-153
0.4809 	-1.48471e-153
0.4816 	-1.09767e-153
0.4823 	-9.02253e-154
0.483 	-7.0684e-154
0.4837 	-5.11426e-154
0.4844 	-3.16013e-154
0.4851 	-1.4306e-154
0.4858 	-1.04486e-154
0.4865 	-7.50023e-155
0.4872 	-6.18811e-155
0.4879 	-4.87598e-155
0.4886 	-3.56386e-155
0.4893 	-2.25174e-155
0.49 	-9.39944e-156
0.4907 	-6.95979e-156
0.4914 	-4.86357e-156
0.4921 	-4.02791e-156
0.4928 	-3.19224e-156
0.4935 	-2.35657e-156
0.4942 	-1.52091e-156
0.4949 	-6.85243e-157
0.4956 	-4.40181e-157
0.4963 	-3.00161e-157
0.497 	-2.49526e-157
0.4977 	-1.98891e-157
0.4984 	-1.48257e-157
0.4991 	-9.7622e-158
0.4998 	-4.69874e-158
0.5005 	-2.65067e-158
0.5012 	-1.80682e-158
0.5019 	-1.4748e-158
0.5026 	-1.18214e-158
0.5033 	-8.89485e-159
0.504 	-5.96829e-159
0.5047 	-3.04174e-159
0.5054 	-1.5234e-159
0.5061 	-1.05982e-159
0.5068 	-8.33418e-160
0.5075 	-6.71704e-160
0.5082 	-5.09989e-160
0.5089 	-3.48275e-160
0.5096 	-1.8656e-160
0.5103 	-8.3738e-161
0.511 	-5.93352e-161
0.5117 	-4.51169e-161
0.5124 	-3.65564e-161
0.5131 	-2.7996e-161
0.5138 	-1.94356e-161
0.5145 	-1.08752e-161
0.5152 	-4.41066e-162
0.5159 	-3.17764e-162
0.5166 	-2.34369e-162
0.5173 	-1.90881e-162
0.518 	-1.47393e-162
0.5187 	-1.03906e-162
0.5194 	-6.04181e-163
0.5201 	-2.22991e-163
0.5208 	-1.63095e-163
0.5215 	-1.17007e-163
0.5222 	-9.57719e-164
0.5229 	-7.45369e-164
0.5236 	-5.33019e-164
0.5243 	-3.20669e-164
0.525 	-1.08372e-164
0.5257 	-8.03655e-165
0.5264 	-5.62181e-165
0.5271 	-4.62371e-165
0.5278 	-3.62561e-165
0.5285 	-2.62751e-165
0.5292 	-1.62941e-165
0.5299 	-6.31316e-166
0.5306 	-3.80765e-166
0.5313 	-2.6028e-166
0.532 	-2.15064e-166
0.5327 	-1.69848e-166
0.5334 	-1.24633e-166
0.5341 	-7.94167e-167
0.5348 	-3.42009e-167
0.5355 	-1.73702e-167
0.5362 	-1.18765e-167
0.5369 	-9.64875e-168
0.5376 	-7.67218e-168
0.5383 	-5.6956e-168
0.539 	-3.71903e-168
0.5397 	-1.74246e-168
0.5404 	-7.63946e-169
0.5411 	-5.33042e-169
0.5418 	-4.17983e-169
0.5425 	-3.34518e-169
0.5432 	-2.51053e-169
0.5439 	-1.67588e-169
0.5446 	-8.41223e-170
0.5453 	-3.24284e-170
0.546 	-2.30433e-170
0.5467 	-1.75007e-170
0.5474 	-1.40927e-170
0.5481 	-1.06847e-170
0.5488 	-7.27677e-171
0.5495 	-3.86881e-171
0.5502 	-1.32999e-171
0.5509 	-9.6078e-172
0.5516 	-7.08841e-172
0.5523 	-5.7417e-172
0.553 	-4.395e-172
0.5537 	-3.04829e-172
0.5544 	-1.70158e-172
0.5551 	-5.27529e-173
0.5558 	-3.86832e-173
0.5565 	-2.77974e-173
0.5572 	-2.26427e-173
0.5579 	-1.7488e-173
0.5586 	-1.23333e-173
0.5593 	-7.17866e-174
0.56 	-2.0253e-174
0.5607 	-1.5056e-174
0.5614 	-1.05622e-174
0.5621 	-8.64965e-175
0.5628 	-6.73709e-175
0.5635 	-4.82453e-175
0.5642 	-2.91197e-175
0.5649 	-9.99416e-176
0.5656 	-5.6704e-176
0.5663 	-3.89147e-176
0.567 	-3.2031e-176
0.5677 	-2.51473e-176
0.5684 	-1.82636e-176
0.5691 	-1.13799e-176
0.5698 	-4.49616e-177
0.5705 	-2.06833e-177
0.5712 	-1.42026e-177
0.5719 	-1.15064e-177
0.5726 	-9.10145e-178
0.5733 	-6.69646e-178
0.574 	-4.29148e-178
0.5747 	-1.88649e-178
0.5754 	-7.31284e-179
0.5761 	-5.12277e-179
0.5768 	-4.01223e-179
0.5775 	-3.19612e-179
0.5782 	-2.38e-179
0.5789 	-1.56388e-179
0.5796 	-7.47763e-180
0.5803 	-2.50803e-180
0.581 	-1.78874e-180
0.5817 	-1.35883e-180
0.5824 	-1.08968e-180
0.5831 	-8.20532e-181
0.5838 	-5.51383e-181
0.5845 	-2.82235e-181
0.5852 	-8.34952e-182
0.5859 	-6.05232e-182
0.5866 	-4.47217e-182
0.5873 	-3.60906e-182
0.588 	-2.74596e-182
0.5887 	-1.88286e-182
0.5894 	-1.01976e-182
0.5901 	-2.69989e-183
0.5908 	-1.98612e-183
0.5915 	-1.43111e-183
0.5922 	-1.16184e-183
0.5929 	-8.92574e-184
0.5936 	-6.23307e-184
0.5943 	-3.54041e-184
0.595 	-8.48446e-185
0.5957 	-6.32616e-185
0.5964 	-4.4549e-185
0.5971 	-3.63727e-185
0.5978 	-2.81965e-185
0.5985 	-2.00203e-185
0.5992 	-1.18441e-185
0.5999 	-3.66789e-186
0.6006 	-1.95719e-186
0.6013 	-1.34963e-186
0.602 	-1.10788e-186
0.6027 	-8.6613e-187
0.6034 	-6.24381e-187
0.6041 	-3.82633e-187
0.6048 	-1.40884e-187
0.6055 	-5.88518e-188
0.6062 	-4.06148e-188
0.6069 	-3.28465e-188
0.6076 	-2.58835e-188
0.6083 	-1.89206e-188
0.609 	-1.19576e-188
0.6097 	-4.9946e-189
0.6104 	-1.72099e-189
0.6111 	-1.21113e-189
0.6118 	-9.48312e-190
0.6125 	-7.52872e-190
0.6132 	-5.57432e-190
0.6139 	-3.61992e-190
0.6146 	-1.66552e-190
0.6153 	-4.89691e-191
0.616 	-3.50727e-191
0.6167 	-2.66717e-191
0.6174 	-2.13239e-191
0.6181 	-1.59761e-191
0.6188 	-1.06283e-191
0.6195 	-5.28044e-192
0.6202 	-1.35647e-192
0.6209 	-9.87099e-193
0.6216 	-7.31063e-193
0.6223 	-5.88359e-193
0.623 	-4.45654e-193
0.6237 	-3.02949e-193
0.6244 	-1.60245e-193
0.6251 	-3.65968e-194
0.6258 	-2.70191e-194
0.6265 	-1.95353e-194
0.6272 	-1.58205e-194
0.6279 	-1.21056e-194
0.6286 	-8.39078e-195
0.6293 	-4.67594e-195
0.63 	-9.62059e-196
0.6307 	-7.19742e-196
0.6314 	-5.09099e-196
0.6321 	-4.1473e-196
0.6328 	-3.20362e-196
0.6335 	-2.25993e-196
0.6342 	-1.31625e-196
0.6349 	-3.72566e-197
0.6356 	-1.86696e-197
0.6363 	-1.29436e-197
0.637 	-1.06034e-197
0.6377 	-8.26331e-198
0.6384 	-5.92319e-198
0.6391 	-3.58307e-198
0.6398 	-1.24295e-198
0.6405 	-4.71833e-199
0.6412 	-3.27435e-199
0.6419 	-2.64502e-199
0.6426 	-2.07836e-199
0.6433 	-1.51171e-199
0.644 	-9.45048e-200
0.6447 	-3.7839e-200
0.6454 	-1.16247e-200
0.6461 	-8.22228e-201
0.6468 	-6.44004e-201
0.6475 	-5.09966e-201
0.6482 	-3.75927e-201
0.6489 	-2.41889e-201
0.6496 	-1.07851e-201
0.6503 	-2.79356e-202
0.651 	-2.01012e-202
0.6517 	-1.53114e-202
0.6524 	-1.2213e-202
0.6531 	-9.11464e-203
0.6538 	-6.01627e-203
0.6545 	-2.91789e-203
0.6552 	-6.55211e-204
0.6559 	-4.78843e-204
0.6566 	-3.55648e-204
0.6573 	-2.85627e-204
0.658 	-2.15606e-204
0.6587 	-1.45584e-204
0.6594 	-7.55629e-205
0.6601 	-1.50086e-205
0.6608 	-1.11248e-205
0.6615 	-8.07522e-206
0.6622 	-6.5273e-206
0.6629 	-4.97937e-206
0.6636 	-3.43145e-206
0.6643 	-1.88353e-206
0.665 	-3.36005e-207
0.6657 	-2.52305e-207
0.6664 	-1.79353e-207
0.6671 	-1.45859e-207
0.6678 	-1.12365e-207
0.6685 	-7.88706e-208
0.6692 	-4.53766e-208
0.6699 	-1.18826e-208
0.6706 	-5.59167e-209
0.6713 	-3.8997e-209
0.672 	-3.18976e-209
0.6727 	-2.47983e-209
0.6734 	-1.76989e-209
0.6741 	-1.05996e-209
0.6748 	-3.50021e-210
0.6755 	-1.21237e-210
0.6762 	-8.46474e-211
0.6769 	-6.83339e-211
0.6776 	-5.35801e-211
0.6783 	-3.88263e-211
0.679 	-2.40726e-211
0.6797 	-9.31881e-212
0.6804 	-2.57489e-212
0.6811 	-1.83142e-212
0.6818 	-1.43566e-212
0.6825 	-1.13471e-212
0.6832 	-8.33772e-213
0.6839 	-5.3283e-213
0.6846 	-2.31887e-213
0.6853 	-5.36389e-214
0.686 	-3.8795e-214
0.6867 	-2.96159e-214
0.6874 	-2.35838e-214
0.6881 	-1.75518e-214
0.6888 	-1.15197e-214
0.6895 	-5.48765e-215
0.6902 	-1.09735e-215
0.6909 	-8.05801e-216
0.6916 	-6.00554e-216
0.6923 	-4.81613e-216
0.693 	-3.62672e-216
0.6937 	-2.43731e-216
0.6944 	-1.2479e-216
0.6951 	-2.2082e-217
0.6958 	-1.65496e-217
0.6965 	-1.2184e-217
0.6972 	-9.9183e-218
0.6979 	-7.65264e-218
0.6986 	-5.38698e-218
0.6993 	-3.12132e-218
0.7 	-8.56253e-219
