0 	1
0.0007 	1
0.0014 	1
0.0021 	1
0.0028 	1
0.0035 	1
0.0042 	1
0.0049 	1
0.0056 	1
0.0063 	1
0.007 	1
0.0077 	1
0.0084 	1
0.0091 	1
0.0098 	1
0.0105 	1
0.0112 	1
0.0119 	1
0.0126 	1
0.0133 	1
0.014 	1
0.0147 	1
0.0154 	1
0.0161 	1
0.0168 	1
0.0175 	1
0.0182 	1
0.0189 	1
0.0196 	1
0.0203 	1
0.021 	1
0.0217 	1
0.0224 	1
0.0231 	1
0.0238 	1
0.0245 	1
0.0252 	1
0.0259 	1
0.0266 	1
0.0273 	1
0.028 	1
0.0287 	1
0.0294 	1
0.0301 	1
0.0308 	1
0.0315 	1
0.0322 	1
0.0329 	1
0.0336 	1
0.0343 	1
0.035 	1
0.0357 	1
0.0364 	1
0.0371 	1
0.0378 	1
0.0385 	1
0.0392 	1
0.0399 	1
0.0406 	1
0.0413 	1
0.042 	1
0.0427 	1
0.0434 	1
0.0441 	1
0.0448 	1
0.0455 	1
0.0462 	1
0.0469 	1
0.0476 	1
0.0483 	1
0.049 	1
0.0497 	1
0.0504 	1
0.0511 	1
0.0518 	1
0.0525 	1
0.0532 	1
0.0539 	1
0.0546 	1
0.0553 	1
0.056 	1
0.0567 	1
0.0574 	1
0.0581 	1
0.0588 	1
0.0595 	1
0.0602 	1
0.0609 	1
0.0616 	1
0.0623 	1
0.063 	1
0.0637 	1
0.0644 	1
0.0651 	1
0.0658 	1
0.0665 	1
0.0679 	1
0.0686 	1
0.0693 	1
0.07 	1
0.0707 	1
0.0714 	1
0.0721 	1
0.0728 	1
0.0735 	1
0.0742 	1
0.0749 	1
0.0756 	1
0.0763 	1
0.077 	1
0.0777 	1
0.0784 	1
0.0791 	1
0.0798 	1
0.0805 	1
0.0812 	1
0.0819 	1
0.0826 	1
0.0833 	1
0.084 	1
0.0847 	1
0.0854 	1
0.0861 	1
0.0868 	1
0.0875 	1
0.0882 	1
0.0889 	1
0.0896 	1
0.0903 	1
0.091 	1
0.0917 	1
0.0924 	1
0.0931 	1
0.0938 	1
0.0945 	1
0.0952 	1
0.0959 	1
0.0966 	1
0.0973 	1
0.098 	1
0.0987 	1
0.0994 	1
0.1001 	1
0.1008 	1
0.1015 	1
0.1022 	1
0.1029 	1
0.1036 	1
0.1043 	1
0.105 	1
0.1057 	1
0.1064 	1
0.1071 	1
0.1078 	1
0.1085 	1
0.1092 	1
0.1099 	1
0.1106 	1
0.112 	1
0.1127 	1
0.1134 	1
0.1141 	1
0.1148 	1
0.1155 	1
0.1162 	1
0.1169 	1
0.1176 	1
0.1183 	1
0.119 	1
0.1197 	1
0.1204 	1
0.1211 	1
0.1218 	1
0.1225 	1
0.1232 	1
0.1239 	1
0.1246 	1
0.1253 	1
0.126 	1
0.1267 	1
0.1274 	1
0.1281 	1
0.1288 	1
0.1295 	1
0.1302 	1
0.1309 	1
0.1316 	1
0.1323 	1
0.133 	1
0.1337 	1
0.1344 	1
0.1351 	1
0.1358 	1
0.1365 	1
0.1372 	1
0.1379 	1
0.1386 	1
0.1393 	1
0.14 	1
0.1407 	1
0.1414 	1
0.1421 	1
0.1428 	1
0.1435 	1
0.1442 	1
0.1449 	1
0.1456 	1
0.1463 	1
0.147 	1
0.1477 	1
0.1484 	1
0.1491 	1
0.1498 	1
0.1505 	1
0.1512 	1
0.1519 	1
0.1526 	1
0.1533 	1
0.154 	1
0.1547 	1
0.1554 	1
0.1561 	1
0.1568 	1
0.1575 	1
0.1582 	1
0.1589 	1
0.1596 	1
0.1603 	1
0.161 	1
0.1617 	1
0.1624 	1
0.1631 	1
0.1638 	1
0.1645 	1
0.1652 	1
0.1659 	1
0.1666 	1
0.1673 	1
0.168 	1
0.1687 	1
0.1694 	1
0.1701 	1
0.1708 	1
0.1715 	1
0.1722 	1
0.1729 	1
0.1736 	1
0.1743 	1
0.175 	1
0.1757 	1
0.1764 	1
0.1771 	1
0.1778 	1
0.1785 	1
0.1792 	1
0.1799 	1
0.1806 	1
0.1813 	1
0.182 	1
0.1827 	1
0.1834 	1
0.1841 	1
0.1848 	1
0.1855 	1
0.1862 	1
0.1869 	1
0.1876 	1
0.1883 	1
0.189 	1
0.1897 	1
0.1904 	1
0.1911 	1
0.1918 	1
0.1925 	1
0.1932 	1
0.1939 	1
0.1946 	1
0.1953 	1
0.196 	1
0.1967 	1
0.1974 	1
0.1981 	1
0.1988 	1
0.1995 	1
0.2002 	1
0.2009 	1
0.2016 	1
0.2023 	1
0.203 	1
0.2037 	1
0.2044 	1
0.2051 	1
0.2058 	1
0.2065 	1
0.2072 	1
0.2079 	1
0.2086 	1
0.2093 	1
0.21 	1
0.2107 	1
0.2114 	1
0.2121 	1
0.2128 	1
0.2135 	1
0.2142 	1
0.2149 	1
0.2156 	1
0.2163 	1
0.217 	1
0.2177 	1
0.2184 	1
0.2191 	1
0.2198 	1
0.2205 	1
0.2212 	1
0.2219 	1
0.2226 	1
0.2233 	1
0.224 	1
0.2247 	1
0.2254 	1
0.2261 	1
0.2268 	1
0.2275 	1
0.2282 	1
0.2289 	1
0.2296 	1
0.2303 	0.999999
0.231 	0.999998
0.2317 	0.999996
0.2324 	0.999995
0.2338 	0.999992
0.2345 	0.999991
0.2352 	0.999776
0.2359 	0.999027
0.2366 	0.998278
0.2373 	0.997529
0.238 	0.99678
0.2387 	0.996031
0.2394 	0.995282
0.2401 	0.991456
0.2408 	0.969167
0.2415 	0.946873
0.2422 	0.924572
0.2429 	0.902271
0.2436 	0.87997
0.2443 	0.857669
0.245 	0.835368
0.2457 	0.766229
0.2464 	0.697092
0.2471 	0.627963
0.2478 	0.558835
0.2485 	0.489706
0.2492 	0.420578
0.2499 	0.351449
0.2506 	0.30068
0.2513 	0.252972
0.252 	0.205274
0.2527 	0.157577
0.2534 	0.109879
0.2541 	0.0621819
0.2548 	0.0144845
0.2555 	0.000776506
0.2562 	0.00066429
0.2569 	0.00054252
0.2576 	0.000420016
0.2583 	0.000297511
0.259 	0.000175007
0.2597 	5.25024e-05
0.2604 	3.88166e-10
0.2611 	3.3864e-10
0.2618 	2.79917e-10
0.2625 	2.18685e-10
0.2632 	1.57453e-10
0.2639 	9.62214e-11
0.2646 	3.49897e-11
0.2653 	8.05501e-17
0.266 	7.09619e-17
0.2667 	5.94331e-17
0.2674 	4.68261e-17
0.2681 	3.42191e-17
0.2688 	2.16121e-17
0.2695 	9.00508e-18
0.2702 	7.09262e-23
0.2709 	6.38068e-23
0.2716 	5.46243e-23
0.2723 	4.33786e-23
0.273 	3.2133e-23
0.2737 	2.08874e-23
0.2744 	9.64172e-24
0.2751 	2.56983e-27
0.2758 	2.35786e-27
0.2765 	2.07349e-27
0.2772 	1.65879e-27
0.2779 	1.2441e-27
0.2786 	8.29409e-28
0.2793 	4.14717e-28
0.28 	2.38419e-32
0.2807 	2.19173e-32
0.2814 	1.95889e-32
0.2821 	1.578e-32
0.2828 	1.1971e-32
0.2835 	8.16208e-33
0.2842 	4.35314e-33
0.2849 	5.44191e-34
0.2856 	5.19658e-38
0.2863 	4.71641e-38
0.287 	3.82412e-38
0.2877 	2.93183e-38
0.2884 	2.03953e-38
0.2891 	1.14724e-38
0.2898 	2.54949e-39
0.2905 	7.24602e-44
0.2912 	6.62959e-44
0.2919 	5.44406e-44
0.2926 	4.21476e-44
0.2933 	2.98546e-44
0.294 	1.75615e-44
0.2947 	5.26851e-45
0.2954 	6.71453e-50
0.2961 	6.15069e-50
0.2968 	5.14549e-50
0.2975 	4.01991e-50
0.2982 	2.89434e-50
0.2989 	1.76876e-50
0.2996 	6.4319e-51
0.3003 	4.39298e-56
0.301 	4.02862e-56
0.3017 	3.43068e-56
0.3024 	2.70296e-56
0.3031 	1.97524e-56
0.3038 	1.24752e-56
0.3045 	5.19801e-57
0.3052 	2.13146e-62
0.3059 	1.95678e-62
0.3066 	1.69496e-62
0.3073 	1.346e-62
0.308 	9.97034e-63
0.3087 	6.48072e-63
0.3094 	2.99111e-63
0.3101 	8.04143e-69
0.3108 	7.38997e-69
0.3115 	6.50643e-69
0.3122 	5.20515e-69
0.3129 	3.90386e-69
0.3136 	2.60257e-69
0.3143 	1.30129e-69
0.315 	2.51164e-75
0.3157 	2.3102e-75
0.3164 	2.06585e-75
0.3171 	1.66416e-75
0.3178 	1.26246e-75
0.3185 	8.60772e-76
0.3192 	4.59079e-76
0.3199 	5.73854e-77
0.3206 	6.51009e-82
0.3213 	5.90426e-82
0.322 	4.78724e-82
0.3227 	3.67022e-82
0.3234 	2.55319e-82
0.3241 	1.43617e-82
0.3248 	3.19152e-83
0.3255 	2.3103e-88
0.3262 	2.10291e-88
0.3269 	1.72616e-88
0.3276 	1.33638e-88
0.3283 	9.46605e-89
0.329 	5.56827e-89
0.3297 	1.6705e-89
0.3304 	1.94479e-94
0.3311 	1.76498e-94
0.3318 	1.47324e-94
0.3325 	1.15097e-94
0.3332 	8.28699e-95
0.3339 	5.06429e-95
0.3346 	1.84158e-95
0.3353 	2.87284e-100
0.336 	2.6118e-100
0.3367 	2.21634e-100
0.3374 	1.74621e-100
0.3381 	1.27608e-100
0.3388 	8.05946e-101
0.3395 	3.35813e-101
0.3402 	4.43912e-106
0.3409 	4.04642e-106
0.3416 	3.49072e-106
0.3423 	2.77205e-106
0.343 	2.05337e-106
0.3437 	1.33469e-106
0.3444 	6.16015e-107
0.3451 	6.33211e-112
0.3458 	5.78549e-112
0.3465 	5.07182e-112
0.3472 	4.05745e-112
0.3479 	3.04309e-112
0.3486 	2.02873e-112
0.3493 	1.01437e-112
0.35 	8.25323e-118
0.3507 	7.55631e-118
0.3514 	6.72838e-118
0.3521 	5.42009e-118
0.3528 	4.11179e-118
0.3535 	2.8035e-118
0.3542 	1.4952e-118
0.3549 	1.86909e-119
0.3556 	8.96899e-124
0.3563 	8.10783e-124
0.357 	6.57392e-124
0.3577 	5.04e-124
0.3584 	3.50609e-124
0.3591 	1.97218e-124
0.3598 	4.38271e-125
0.3605 	9.66628e-130
0.3612 	8.81107e-130
0.3619 	7.23332e-130
0.3626 	5.59999e-130
0.3633 	3.96667e-130
0.364 	2.33334e-130
0.3647 	7.00008e-131
0.3654 	9.45511e-136
0.3661 	8.63376e-136
0.3668 	7.21729e-136
0.3675 	5.63851e-136
0.3682 	4.05973e-136
0.3689 	2.48095e-136
0.3696 	9.02169e-137
0.3703 	8.39327e-142
0.371 	7.67652e-142
0.3717 	6.53007e-142
0.3724 	5.14491e-142
0.3731 	3.75974e-142
0.3738 	2.37458e-142
0.3745 	9.89415e-143
0.3752 	1.10301e-147
0.3759 	9.75695e-148
0.3766 	8.27543e-148
0.3773 	6.58556e-148
0.378 	4.89569e-148
0.3787 	3.20583e-148
0.3794 	1.51596e-148
0.3801 	6.63661e-150
0.3808 	5.84042e-150
0.3815 	4.97502e-150
0.3822 	3.98505e-150
0.3829 	2.99508e-150
0.3836 	2.00511e-150
0.3843 	1.01514e-150
0.385 	2.51718e-152
0.3857 	2.24642e-152
0.3864 	1.95262e-152
0.3871 	1.57436e-152
0.3878 	1.19609e-152
0.3885 	8.17828e-153
0.3892 	4.39563e-153
0.3899 	6.12988e-154
0.3906 	6.6485e-155
0.3913 	5.90535e-155
0.392 	4.79123e-155
0.3927 	3.67711e-155
0.3934 	2.56299e-155
0.3941 	1.44887e-155
0.3948 	3.34744e-156
0.3955 	1.53406e-157
0.3962 	1.38236e-157
0.3969 	1.13431e-157
0.3976 	8.78854e-158
0.3983 	6.23397e-158
0.399 	3.67939e-158
0.3997 	1.12482e-158
0.4004 	2.8482e-160
0.4011 	2.58252e-160
0.4018 	2.15583e-160
0.4032 	1.21464e-160
0.4039 	7.44041e-161
0.4046 	2.73445e-161
0.4053 	4.36538e-163
0.406 	3.97448e-163
0.4067 	3.37538e-163
0.4074 	2.66062e-163
0.4081 	1.94586e-163
0.4088 	1.2311e-163
0.4095 	5.16339e-164
0.4102 	5.65514e-166
0.4116 	4.45911e-166
0.4123 	3.54237e-166
0.413 	2.62564e-166
0.4137 	1.70891e-166
0.4144 	7.92175e-167
0.4151 	6.32681e-169
0.4158 	5.78864e-169
0.4165 	5.08024e-169
0.4172 	4.06543e-169
0.4179 	3.05062e-169
0.4186 	2.03581e-169
0.4193 	1.021e-169
0.42 	6.19608e-172
0.4207 	5.67796e-172
0.4214 	5.06024e-172
0.4221 	4.07735e-172
0.4228 	3.09445e-172
0.4235 	2.11156e-172
0.4242 	1.12866e-172
0.4249 	1.45764e-173
0.4256 	4.96754e-175
0.4263 	4.49242e-175
0.427 	3.64329e-175
0.4277 	2.79416e-175
0.4291 	1.09591e-175
0.4305 	3.92061e-178
0.4319 	2.93372e-178
0.4326 	2.27194e-178
0.4333 	1.61016e-178
0.434 	9.48371e-179
0.4347 	2.86587e-179
0.4354 	2.82391e-181
0.4361 	2.57665e-181
0.4368 	2.15382e-181
0.4375 	1.6831e-181
0.4382 	1.21238e-181
0.4389 	7.41658e-182
0.4396 	2.70937e-182
0.4403 	1.88456e-184
0.441 	1.72159e-184
0.4417 	1.46392e-184
0.4424 	1.15365e-184
0.4431 	8.43372e-185
0.4438 	5.33097e-185
0.4445 	2.22821e-185
0.4452 	1.16768e-187
0.4459 	1.06796e-187
0.4466 	9.2314e-188
0.4473 	7.33223e-188
0.448 	5.43306e-188
0.4487 	3.53389e-188
0.4494 	1.63473e-188
0.4501 	6.78711e-191
0.4508 	6.21508e-191
0.4515 	5.45778e-191
0.4522 	4.36696e-191
0.4529 	3.27615e-191
0.4536 	2.18534e-191
0.4543 	1.09452e-191
0.455 	3.70689e-194
0.4557 	3.39879e-194
0.4564 	3.03051e-194
0.4571 	2.44161e-194
0.4578 	1.85271e-194
0.4585 	1.26381e-194
0.4592 	6.74907e-195
0.4599 	8.60048e-196
0.4606 	1.74262e-197
0.4613 	1.57688e-197
0.462 	1.27872e-197
0.4627 	9.80562e-198
0.4634 	6.82403e-198
0.4641 	3.84244e-198
0.4648 	8.60853e-199
0.4655 	8.44124e-201
0.4662 	7.69956e-201
0.4669 	6.32188e-201
0.4676 	4.89526e-201
0.4683 	3.46865e-201
0.469 	2.04204e-201
0.4697 	6.15434e-202
0.4704 	3.83936e-204
0.4711 	3.50734e-204
0.4718 	2.93246e-204
0.4725 	2.29136e-204
0.4732 	1.65025e-204
0.4739 	1.00915e-204
0.4746 	3.68042e-205
0.4753 	1.63675e-207
0.476 	1.49737e-207
0.4767 	1.27396e-207
0.4774 	1.00387e-207
0.4781 	7.3378e-208
0.4788 	4.63689e-208
0.4795 	1.93597e-208
0.4802 	6.59302e-211
0.4809 	6.04006e-211
0.4816 	5.22588e-211
0.4823 	4.15048e-211
0.483 	3.07509e-211
0.4837 	1.99969e-211
0.4844 	9.24294e-212
0.4851 	2.49598e-214
0.4858 	2.28973e-214
0.4865 	2.01339e-214
0.4879 	1.20841e-214
0.4886 	8.05922e-215
0.4893 	4.03432e-215
0.49 	9.42188e-218
0.4907 	8.65428e-218
0.4914 	7.72926e-218
0.4921 	6.22706e-218
0.4928 	4.72487e-218
0.4935 	3.22267e-218
0.4942 	1.72048e-218
0.4949 	2.1828e-219
0.4956 	3.42418e-221
0.4963 	3.10435e-221
0.497 	2.51733e-221
0.4977 	1.93031e-221
0.4984 	1.34329e-221
0.4991 	7.56273e-222
0.4998 	1.69254e-222
0.5005 	1.44581e-224
0.5012 	1.32123e-224
0.5019 	1.08497e-224
0.5026 	8.40125e-225
0.5033 	5.95279e-225
0.504 	3.50433e-225
0.5047 	1.05586e-225
0.5054 	6.22201e-228
0.5068 	4.76189e-228
0.5075 	3.72084e-228
0.5082 	2.67978e-228
0.5089 	1.63873e-228
0.5096 	5.97671e-229
0.5103 	2.68585e-231
0.511 	2.4606e-231
0.5117 	2.09468e-231
0.5124 	1.65061e-231
0.5131 	1.20654e-231
0.5138 	7.62468e-232
0.5145 	3.18397e-232
0.5152 	1.17492e-234
0.5159 	1.07766e-234
0.5166 	9.33034e-235
0.5173 	7.41047e-235
0.518 	5.4906e-235
0.5187 	3.57074e-235
0.5194 	1.65087e-235
0.5201 	5.2112e-238
0.5208 	4.78526e-238
0.5215 	4.21084e-238
0.5222 	3.36913e-238
0.5229 	2.52743e-238
0.5236 	1.68573e-238
0.5243 	8.44027e-239
0.525 	2.32507e-241
0.5257 	2.13738e-241
0.5264 	1.91036e-241
0.5271 	1.5391e-241
0.5278 	1.16784e-241
0.5285 	7.9658e-242
0.5292 	4.25321e-242
0.5299 	5.40625e-243
0.5306 	9.54674e-245
0.5313 	8.66157e-245
0.532 	7.02375e-245
0.5327 	5.38592e-245
0.5334 	3.7481e-245
0.5341 	2.11028e-245
0.5348 	4.72462e-246
0.5355 	4.25365e-248
0.5362 	3.88982e-248
0.5369 	3.19444e-248
0.5376 	2.47356e-248
0.5383 	1.75268e-248
0.539 	1.03181e-248
0.5397 	3.10927e-249
0.5404 	1.88765e-251
0.5411 	1.72824e-251
0.5418 	1.44574e-251
0.5425 	1.12967e-251
0.5432 	8.13606e-252
0.5439 	4.97539e-252
0.5446 	1.81472e-252
0.5453 	8.33005e-255
0.546 	7.63536e-255
0.5467 	6.50123e-255
0.5474 	5.12297e-255
0.5481 	3.74472e-255
0.5488 	2.36646e-255
0.5495 	9.88206e-256
0.5502 	3.651e-258
0.5509 	3.35026e-258
0.5516 	2.90138e-258
0.5523 	2.30436e-258
0.553 	1.70735e-258
0.5537 	1.11034e-258
0.5544 	5.1333e-259
0.5551 	1.58796e-261
0.5565 	1.28399e-261
0.5572 	1.02733e-261
0.5579 	7.70667e-262
0.5593 	2.57346e-262
0.56 	6.84776e-265
0.5607 	6.2971e-265
0.5614 	5.62998e-265
0.5621 	4.53583e-265
0.5628 	3.44167e-265
0.5635 	2.34751e-265
0.5642 	1.25336e-265
0.5649 	1.592e-266
0.5656 	2.69224e-268
0.5663 	2.4434e-268
0.567 	1.98137e-268
0.5677 	1.51933e-268
0.5684 	1.05729e-268
0.5691 	5.95256e-269
0.5698 	1.33219e-269
0.5705 	1.13862e-271
0.5712 	1.04155e-271
0.5719 	8.55367e-272
0.5726 	6.62332e-272
0.5733 	4.69297e-272
0.574 	2.76263e-272
0.5747 	8.32279e-273
0.5754 	4.75797e-275
0.5761 	4.35734e-275
0.5768 	3.6453e-275
0.5775 	2.84834e-275
0.5782 	2.05137e-275
0.5789 	1.25441e-275
0.5796 	4.57441e-276
0.5803 	1.96227e-278
0.581 	1.79906e-278
0.5817 	1.53197e-278
0.5824 	1.20718e-278
0.5831 	8.8239e-279
0.5838 	5.576e-279
0.5845 	2.3281e-279
0.5852 	7.97919e-282
0.5859 	7.32345e-282
0.5866 	6.34297e-282
0.5873 	5.03773e-282
0.588 	3.73249e-282
0.5887 	2.42725e-282
0.5894 	1.12201e-282
0.5901 	3.19632e-285
0.5908 	2.93675e-285
0.5915 	2.58531e-285
0.5922 	2.0685e-285
0.5929 	1.55169e-285
0.5936 	1.03488e-285
0.5943 	5.18071e-286
0.595 	1.26043e-288
0.5957 	1.15927e-288
0.5964 	1.03661e-288
0.5971 	8.35141e-289
0.5978 	6.33672e-289
0.5985 	4.32203e-289
0.5992 	2.30734e-289
0.5999 	2.92647e-290
0.6006 	4.50154e-292
0.6013 	4.08614e-292
0.602 	3.31343e-292
0.6027 	2.54072e-292
0.6034 	1.76801e-292
0.6041 	9.95305e-293
0.6048 	2.22596e-293
0.6055 	1.71815e-295
0.6062 	1.57192e-295
0.6069 	1.29093e-295
0.6076 	9.99585e-296
0.6083 	7.08236e-296
0.609 	4.16888e-296
0.6097 	1.25539e-296
0.6104 	6.44015e-299
0.6111 	5.89868e-299
0.6118 	4.93489e-299
0.6125 	3.85592e-299
0.6132 	2.77695e-299
0.6139 	1.69798e-299
0.6146 	6.19008e-300
0.6153 	2.36833e-302
0.616 	2.1716e-302
0.6167 	1.84928e-302
0.6174 	1.4572e-302
0.6181 	1.06511e-302
0.6188 	6.73022e-303
0.6195 	2.80936e-303
0.6202 	8.5367e-306
0.6209 	7.836e-306
0.6216 	6.78727e-306
0.6223 	5.39052e-306
0.623 	3.99376e-306
0.6237 	2.59701e-306
0.6244 	1.20026e-306
0.6251 	3.01362e-309
0.6258 	2.76915e-309
0.6265 	2.43793e-309
0.6272 	1.95055e-309
0.6279 	1.46318e-309
0.6286 	9.75797e-310
0.6293 	4.88419e-310
0.63 	1.04125e-312
0.6307 	9.57757e-313
0.6314 	8.56485e-313
0.6321 	6.90014e-313
0.6328 	5.23543e-313
0.6335 	3.57072e-313
0.6342 	1.90601e-313
0.6349 	2.41305e-314
0.6356 	3.25021e-316
0.6363 	2.95079e-316
0.637 	2.39265e-316
0.6377 	1.83451e-316
0.6384 	1.27637e-316
0.6391 	7.18233e-317
0.6398 	1.60093e-317
0.6405 	5.88679e-320
0.6412 	5.3868e-320
0.6419 	4.42386e-320
0.6433 	2.42586e-320
0.644 	1.42686e-320
0.6447 	4.28355e-321
0.6454 	0
0.6461 	0
0.6468 	0
0.6475 	0
0.6482 	0
0.6489 	0
0.6496 	0
0.6503 	0
0.651 	0
0.6517 	0
0.6524 	0
0.6531 	0
0.6538 	0
0.6545 	0
0.6552 	0
0.6559 	0
0.6566 	0
0.6573 	0
0.658 	0
0.6587 	0
0.6594 	0
0.6601 	0
0.6615 	0
0.6622 	0
0.6629 	0
0.6636 	0
0.6643 	0
0.665 	0
0.6657 	0
0.6664 	0
0.6671 	0
0.6678 	0
0.6685 	0
0.6692 	0
0.6699 	0
0.6706 	0
0.6713 	0
0.6727 	0
0.6734 	0
0.6741 	0
0.6748 	0
0.6755 	0
0.6762 	0
0.6769 	0
0.6776 	0
0.6783 	0
0.679 	0
0.6797 	0
0.6804 	0
0.6811 	0
0.6818 	0
0.6825 	0
0.6832 	0
0.6839 	0
0.6846 	0
0.6853 	0
0.686 	0
0.6867 	0
0.6874 	0
0.6881 	0
0.6888 	0
0.6895 	0
0.6902 	0
0.6909 	0
0.6916 	0
0.6923 	0
0.693 	0
0.6937 	0
0.6944 	0
0.6951 	0
0.6965 	0
0.6979 	0
0.6986 	0
0.6993 	0
0.7 	0
