0 	1
0.0007 	1
0.0014 	1
0.0021 	1
0.0028 	1
0.0035 	1
0.0042 	1
0.0049 	1
0.0056 	1
0.0063 	1
0.007 	1
0.0077 	1
0.0084 	1
0.0091 	1
0.0098 	1
0.0105 	1
0.0112 	1
0.0119 	1
0.0126 	1
0.0133 	1
0.014 	1
0.0147 	1
0.0154 	1
0.0161 	1
0.0168 	1
0.0175 	1
0.0182 	1
0.0189 	1
0.0196 	1
0.0203 	1
0.021 	1
0.0217 	1
0.0224 	1
0.0231 	1
0.0238 	1
0.0245 	1
0.0252 	1
0.0259 	1
0.0266 	1
0.0273 	1
0.028 	1
0.0287 	1
0.0294 	1
0.0301 	1
0.0308 	1
0.0315 	1
0.0322 	1
0.0329 	1
0.0336 	1
0.0343 	1
0.035 	1
0.0357 	1
0.0364 	1
0.0371 	1
0.0378 	1
0.0385 	1
0.0392 	1
0.0399 	1
0.0406 	1
0.0413 	1
0.042 	1
0.0427 	1
0.0434 	1
0.0441 	1
0.0448 	1
0.0455 	1
0.0462 	1
0.0469 	1
0.0476 	1
0.0483 	1
0.049 	1
0.0497 	1
0.0504 	1
0.0511 	1
0.0518 	1
0.0525 	1
0.0532 	1
0.0539 	1
0.0546 	1
0.0553 	1
0.056 	1
0.0567 	1
0.0574 	1
0.0581 	1
0.0588 	1
0.0595 	1
0.0602 	1
0.0609 	1
0.0616 	1
0.0623 	1
0.063 	1
0.0637 	1
0.0644 	1
0.0651 	1
0.0658 	1
0.0665 	1
0.0672 	1
0.0679 	1
0.0686 	1
0.0693 	1
0.07 	1
0.0707 	1
0.0714 	1
0.0721 	1
0.0728 	1
0.0735 	1
0.0742 	1
0.0749 	1
0.0756 	1
0.0763 	1
0.077 	1
0.0777 	1
0.0784 	1
0.0791 	1
0.0798 	1
0.0805 	1
0.0812 	1
0.0819 	1
0.0826 	1
0.0833 	1
0.084 	1
0.0847 	1
0.0854 	1
0.0861 	1
0.0868 	1
0.0875 	1
0.0882 	1
0.0889 	1
0.0896 	1
0.0903 	1
0.091 	1
0.0917 	1
0.0924 	1
0.0931 	1
0.0938 	1
0.0945 	1
0.0952 	1
0.0959 	1
0.0966 	1
0.0973 	1
0.098 	1
0.0987 	1
0.0994 	1
0.1001 	1
0.1008 	1
0.1015 	1
0.1022 	1
0.1029 	1
0.1036 	1
0.1043 	1
0.105 	1
0.1057 	1
0.1064 	1
0.1071 	1
0.1078 	1
0.1085 	1
0.1092 	1
0.1099 	1
0.1106 	1
0.1113 	1
0.112 	1
0.1127 	1
0.1134 	1
0.1141 	1
0.1148 	1
0.1155 	1
0.1162 	1
0.1169 	1
0.1176 	1
0.1183 	1
0.119 	1
0.1197 	1
0.1204 	1
0.1211 	1
0.1218 	1
0.1225 	1
0.1232 	1
0.1239 	1
0.1246 	1
0.1253 	1
0.126 	1
0.1267 	1
0.1274 	1
0.1281 	1
0.1288 	1
0.1295 	1
0.1302 	1
0.1309 	1
0.1316 	1
0.1323 	1
0.133 	1
0.1337 	1
0.1344 	1
0.1351 	1
0.1358 	1
0.1365 	1
0.1372 	1
0.1379 	1
0.1386 	1
0.1393 	1
0.14 	1
0.1407 	1
0.1414 	1
0.1421 	1
0.1428 	1
0.1435 	1
0.1442 	1
0.1449 	1
0.1456 	1
0.1463 	1
0.147 	1
0.1477 	1
0.1484 	1
0.1491 	1
0.1498 	1
0.1505 	1
0.1512 	1
0.1519 	1
0.1526 	1
0.1533 	1
0.154 	1
0.1547 	1
0.1554 	1
0.1561 	1
0.1568 	1
0.1575 	1
0.1582 	1
0.1589 	1
0.1596 	1
0.1603 	1
0.161 	1
0.1617 	1
0.1624 	1
0.1631 	1
0.1638 	1
0.1645 	1
0.1652 	1
0.1659 	1
0.1666 	1
0.1673 	1
0.168 	1
0.1687 	1
0.1694 	1
0.1701 	1
0.1708 	1
0.1715 	1
0.1722 	1
0.1729 	1
0.1736 	1
0.1743 	1
0.175 	1
0.1757 	1
0.1764 	1
0.1771 	1
0.1778 	1
0.1785 	1
0.1792 	1
0.1799 	1
0.1806 	1
0.1813 	1
0.182 	1
0.1827 	1
0.1834 	1
0.1841 	1
0.1848 	1
0.1855 	1
0.1862 	1
0.1869 	1
0.1876 	1
0.1883 	1
0.189 	1
0.1897 	1
0.1904 	1
0.1911 	1
0.1918 	1
0.1925 	1
0.1932 	1
0.1939 	1
0.1946 	1
0.1953 	1
0.196 	1
0.1967 	1
0.1974 	1
0.1981 	1
0.1988 	1
0.1995 	1
0.2002 	1
0.2009 	1
0.2016 	1
0.2023 	1
0.203 	1
0.2037 	1
0.2044 	1
0.2051 	1
0.2058 	0.999996
0.2065 	0.999993
0.2072 	0.99999
0.2079 	0.999986
0.2086 	0.999983
0.2093 	0.99998
0.21 	0.999976
0.2107 	0.999483
0.2114 	0.99899
0.2121 	0.998497
0.2128 	0.998004
0.2135 	0.99751
0.2142 	0.997017
0.2149 	0.996524
0.2156 	0.986874
0.2163 	0.975696
0.217 	0.964519
0.2177 	0.953342
0.2184 	0.942164
0.2191 	0.930987
0.2198 	0.919809
0.2205 	0.879692
0.2212 	0.827996
0.2219 	0.7763
0.2226 	0.724604
0.2233 	0.672909
0.224 	0.621213
0.2247 	0.569517
0.2254 	0.514187
0.2261 	0.456143
0.2268 	0.398098
0.2275 	0.340054
0.2282 	0.28201
0.2289 	0.223965
0.2296 	0.165921
0.2303 	0.125136
0.231 	0.10736
0.2317 	0.0895847
0.2324 	0.071809
0.2331 	0.0540333
0.2338 	0.0362576
0.2345 	0.0184819
0.2352 	0.00556594
0.2359 	0.00479292
0.2366 	0.0040199
0.2373 	0.00324687
0.238 	0.00247385
0.2387 	0.00170082
0.2394 	0.000927792
0.2401 	0.000260247
0.2408 	0.000225022
0.2415 	0.000189797
0.2422 	0.000154572
0.2429 	0.000119347
0.2436 	8.41217e-05
0.2443 	4.88967e-05
0.245 	1.36756e-05
0.2457 	1.18523e-05
0.2464 	1.00291e-05
0.2471 	8.20594e-06
0.2478 	6.38282e-06
0.2485 	4.55971e-06
0.2492 	2.73659e-06
0.2499 	9.13469e-07
0.2506 	5.78324e-07
0.2513 	4.90941e-07
0.252 	4.0357e-07
0.2527 	3.16199e-07
0.2534 	2.28828e-07
0.2541 	1.41457e-07
0.2548 	5.40864e-08
0.2555 	2.63455e-08
0.2562 	2.24427e-08
0.2569 	1.85411e-08
0.2576 	1.46396e-08
0.2583 	1.07381e-08
0.259 	6.83665e-09
0.2597 	2.93516e-09
0.2604 	1.16763e-09
0.2611 	9.99793e-10
0.2618 	8.32029e-10
0.2625 	6.64285e-10
0.2632 	4.96542e-10
0.2639 	3.28798e-10
0.2646 	1.61055e-10
0.2653 	6.17574e-11
0.266 	5.36769e-11
0.2667 	4.5601e-11
0.2674 	3.75277e-11
0.2681 	2.94543e-11
0.2688 	2.1381e-11
0.2695 	1.33076e-11
0.2702 	7.30143e-12
0.2709 	6.46031e-12
0.2716 	5.61968e-12
0.2723 	4.77953e-12
0.273 	3.93938e-12
0.2737 	3.09923e-12
0.2744 	2.25907e-12
0.2751 	1.51632e-12
0.2758 	1.35744e-12
0.2765 	1.19863e-12
0.2772 	1.03993e-12
0.2779 	8.81237e-13
0.2786 	7.2254e-13
0.2793 	5.63843e-13
0.28 	4.0516e-13
0.2807 	3.66717e-13
0.2814 	3.28278e-13
0.2821 	2.89847e-13
0.2828 	2.51416e-13
0.2835 	2.12986e-13
0.2842 	1.74555e-13
0.2849 	1.36124e-13
0.2856 	1.19687e-13
0.2863 	1.06912e-13
0.287 	9.41297e-14
0.2877 	8.13478e-14
0.2884 	6.85659e-14
0.2891 	5.57841e-14
0.2898 	4.30022e-14
0.2905 	3.63244e-14
0.2912 	3.20874e-14
0.2919 	2.78478e-14
0.2926 	2.3608e-14
0.2933 	1.93683e-14
0.294 	1.51285e-14
0.2947 	1.08887e-14
0.2954 	8.47808e-15
0.2961 	7.43884e-15
0.2968 	6.39917e-15
0.2975 	5.35938e-15
0.2982 	4.31959e-15
0.2989 	3.2798e-15
0.2996 	2.24002e-15
0.3003 	1.5636e-15
0.301 	1.37149e-15
0.3017 	1.17929e-15
0.3024 	9.87032e-16
0.3031 	7.94778e-16
0.3038 	6.02523e-16
0.3045 	4.10269e-16
0.3052 	2.6374e-16
0.3059 	2.31462e-16
0.3066 	1.99164e-16
0.3073 	1.66847e-16
0.308 	1.34529e-16
0.3087 	1.02211e-16
0.3094 	6.98938e-17
0.3101 	4.14594e-17
0.3108 	3.63034e-17
0.3115 	3.11442e-17
0.3122 	2.59796e-17
0.3129 	2.08149e-17
0.3136 	1.56502e-17
0.3143 	1.04856e-17
0.315 	5.32153e-18
0.3157 	4.64908e-18
0.3164 	3.97641e-18
0.3171 	3.30265e-18
0.3178 	2.62889e-18
0.3185 	1.95513e-18
0.3192 	1.28137e-18
0.3199 	6.0761e-19
0.3206 	4.54728e-19
0.3213 	3.88555e-19
0.322 	3.22218e-19
0.3227 	2.55882e-19
0.3234 	1.89545e-19
0.3241 	1.23208e-19
0.3248 	5.68719e-20
0.3255 	3.43476e-20
0.3262 	2.93364e-20
0.3269 	2.43093e-20
0.3276 	1.9281e-20
0.3283 	1.42527e-20
0.329 	9.22436e-21
0.3297 	4.19603e-21
0.3304 	1.88466e-21
0.3311 	1.60984e-21
0.3318 	1.33404e-21
0.3325 	1.05799e-21
0.3332 	7.81933e-22
0.3339 	5.05877e-22
0.3346 	2.29821e-22
0.3353 	6.78886e-23
0.336 	5.80276e-23
0.3367 	4.81288e-23
0.3374 	3.82091e-23
0.3381 	2.82893e-23
0.3388 	1.83695e-23
0.3395 	8.44976e-24
0.3402 	1.31176e-24
0.3409 	1.12298e-24
0.3416 	9.33401e-25
0.3423 	7.4304e-25
0.343 	5.5268e-25
0.3437 	3.6232e-25
0.3444 	1.71959e-25
0.3451 	8.64876e-27
0.3458 	7.42648e-27
0.3465 	6.1986e-27
0.3472 	4.96067e-27
0.3479 	3.72273e-27
0.3486 	2.48479e-27
0.3493 	1.24686e-27
0.35 	9.12184e-30
0.3507 	7.86338e-30
0.3514 	6.59974e-30
0.3521 	5.31658e-30
0.3528 	4.03342e-30
0.3535 	2.75027e-30
0.3542 	1.46711e-30
0.3549 	1.8395e-31
0.3556 	7.50437e-34
0.3563 	6.33534e-34
0.357 	5.13682e-34
0.3577 	3.9383e-34
0.3584 	2.73977e-34
0.3591 	1.54125e-34
0.3598 	3.42727e-35
0.3605 	4.40815e-38
0.3612 	3.73747e-38
0.3619 	3.05007e-38
0.3626 	2.36138e-38
0.3633 	1.67269e-38
0.364 	9.84005e-39
0.3647 	2.95316e-39
0.3654 	2.56218e-42
0.3661 	2.18057e-42
0.3668 	1.79099e-42
0.3675 	1.39923e-42
0.3682 	1.00747e-42
0.3689 	6.15709e-43
0.3696 	2.23949e-43
0.3703 	1.43202e-46
0.371 	1.22323e-46
0.3717 	1.01083e-46
0.3724 	7.96422e-47
0.3731 	5.82012e-47
0.3738 	3.67602e-47
0.3745 	1.53192e-47
0.3752 	7.57322e-51
0.3759 	6.4922e-51
0.3766 	5.39621e-51
0.3773 	4.28527e-51
0.378 	3.17432e-51
0.3787 	2.06338e-51
0.3794 	9.52434e-52
0.3801 	3.77642e-55
0.3808 	3.24848e-55
0.3815 	2.71516e-55
0.3822 	2.17214e-55
0.3829 	1.62913e-55
0.3836 	1.08611e-55
0.3843 	5.431e-56
0.385 	1.78317e-59
0.3857 	1.53888e-59
0.3864 	1.29308e-59
0.3871 	1.04165e-59
0.3878 	7.90228e-60
0.3885 	5.38803e-60
0.3892 	2.87378e-60
0.3899 	3.59531e-61
0.3906 	6.95847e-64
0.3913 	5.87667e-64
0.392 	4.7649e-64
0.3927 	3.65312e-64
0.3934 	2.54134e-64
0.3941 	1.42957e-64
0.3948 	3.17792e-65
0.3955 	3.0281e-68
0.3962 	2.56865e-68
0.3969 	2.0963e-68
0.3976 	1.62295e-68
0.3983 	1.14961e-68
0.399 	6.76262e-69
0.3997 	2.02917e-69
0.4004 	1.27757e-72
0.4011 	1.08786e-72
0.4018 	8.9362e-73
0.4025 	6.98145e-73
0.4032 	5.02671e-73
0.4039 	3.07196e-73
0.4046 	1.11721e-73
0.4053 	5.2527e-77
0.406 	4.48892e-77
0.4067 	3.71021e-77
0.4074 	2.92321e-77
0.4081 	2.13622e-77
0.4088 	1.34922e-77
0.4095 	5.6222e-78
0.4102 	2.11085e-81
0.4109 	1.81014e-81
0.4116 	1.50488e-81
0.4123 	1.19505e-81
0.413 	8.85233e-82
0.4137 	5.75411e-82
0.4144 	2.6559e-82
0.4151 	8.30022e-86
0.4158 	7.14123e-86
0.4165 	5.96976e-86
0.4172 	4.77583e-86
0.4179 	3.5819e-86
0.4186 	2.38797e-86
0.4193 	1.19404e-86
0.42 	3.19326e-90
0.4207 	2.75599e-90
0.4214 	2.31597e-90
0.4221 	1.86565e-90
0.4228 	1.41533e-90
0.4235 	9.6501e-91
0.4242 	5.14689e-91
0.4249 	6.43673e-92
0.4256 	1.03977e-94
0.4263 	8.78115e-95
0.427 	7.11987e-95
0.4277 	5.4586e-95
0.4284 	3.79732e-95
0.4291 	2.13604e-95
0.4298 	4.74766e-96
0.4305 	3.79402e-99
0.4312 	3.21816e-99
0.4319 	2.62082e-99
0.4326 	2.02184e-99
0.4333 	1.42286e-99
0.434 	8.23876e-100
0.4347 	2.24893e-100
0.4354 	-2.70612e-101
0.4361 	-1.89349e-101
0.4368 	-1.721e-101
0.4375 	-1.7231e-101
0.4382 	-1.72519e-101
0.4389 	-1.72729e-101
0.4396 	-1.72939e-101
0.4403 	-1.52901e-101
0.441 	-1.05848e-101
0.4417 	-8.90415e-102
0.4424 	-8.90381e-102
0.4431 	-8.90347e-102
0.4438 	-8.90313e-102
0.4445 	-8.90279e-102
0.4452 	-8.17843e-102
0.4459 	-5.64233e-102
0.4466 	-4.3742e-102
0.4473 	-4.37402e-102
0.448 	-4.37384e-102
0.4487 	-4.37366e-102
0.4494 	-4.37348e-102
0.4501 	-4.18818e-102
0.4508 	-2.89046e-102
0.4515 	-2.05618e-102
0.4522 	-2.05609e-102
0.4529 	-2.056e-102
0.4536 	-2.05591e-102
0.4543 	-2.05582e-102
0.455 	-2.05595e-102
0.4557 	-1.42329e-102
0.4564 	-9.2627e-103
0.4571 	-9.26226e-103
0.4578 	-9.26183e-103
0.4585 	-9.26139e-103
0.4592 	-9.26096e-103
0.4599 	-9.26053e-103
0.4606 	-6.73751e-103
0.4613 	-4.00368e-103
0.462 	-4.00348e-103
0.4627 	-4.00328e-103
0.4634 	-4.00307e-103
0.4641 	-4.00287e-103
0.4648 	-4.00267e-103
0.4655 	-3.0666e-103
0.4662 	-1.75583e-103
0.4669 	-1.66212e-103
0.4676 	-1.66203e-103
0.4683 	-1.66194e-103
0.469 	-1.66185e-103
0.4697 	-1.66176e-103
0.4704 	-1.34235e-103
0.4711 	-7.83276e-104
0.4718 	-6.63443e-104
0.4725 	-6.63404e-104
0.4732 	-6.63365e-104
0.4739 	-6.63326e-104
0.4746 	-6.63287e-104
0.4753 	-5.65275e-104
0.476 	-3.36528e-104
0.4767 	-2.54823e-104
0.4774 	-2.54806e-104
0.4781 	-2.5479e-104
0.4788 	-2.54774e-104
0.4795 	-2.54758e-104
0.4802 	-2.29083e-104
0.4809 	-1.39201e-104
0.4816 	-9.42572e-105
0.4823 	-9.42507e-105
0.483 	-9.42443e-105
0.4837 	-9.42378e-105
0.4844 	-9.42313e-105
0.4851 	-8.9382e-105
0.4858 	-5.54294e-105
0.4865 	-3.36018e-105
0.4872 	-3.35993e-105
0.4879 	-3.35968e-105
0.4886 	-3.35943e-105
0.4893 	-3.35918e-105
0.49 	-3.3593e-105
0.4907 	-2.12501e-105
0.4914 	-1.15529e-105
0.4921 	-1.1552e-105
0.4928 	-1.15511e-105
0.4935 	-1.15502e-105
0.4942 	-1.15492e-105
0.4949 	-1.15483e-105
0.4956 	-7.84563e-106
0.4963 	-3.83357e-106
0.497 	-3.83324e-106
0.4977 	-3.83291e-106
0.4984 	-3.83258e-106
0.4991 	-3.83225e-106
0.4998 	-3.83192e-106
0.5005 	-2.79067e-106
0.5012 	-1.33265e-106
0.5019 	-1.2284e-106
0.5026 	-1.22829e-106
0.5033 	-1.22818e-106
0.504 	-1.22806e-106
0.5047 	-1.22795e-106
0.5054 	-9.56779e-107
0.5061 	-4.82153e-107
0.5068 	-3.80418e-107
0.5075 	-3.8038e-107
0.5082 	-3.80343e-107
0.5089 	-3.80305e-107
0.5096 	-3.80267e-107
0.5103 	-3.16352e-107
0.511 	-1.67197e-107
0.5117 	-1.1392e-107
0.5124 	-1.13908e-107
0.5131 	-1.13896e-107
0.5138 	-1.13884e-107
0.5145 	-1.13872e-107
0.5152 	-1.00934e-107
0.5159 	-5.56516e-108
0.5166 	-3.30084e-108
0.5173 	-3.30047e-108
0.518 	-3.30009e-108
0.5187 	-3.29972e-108
0.5194 	-3.29934e-108
0.5201 	-3.10943e-108
0.5208 	-1.78039e-108
0.5215 	-9.25974e-109
0.5222 	-9.25862e-109
0.5229 	-9.2575e-109
0.5236 	-9.25638e-109
0.5243 	-9.25526e-109
0.525 	-9.25519e-109
0.5257 	-5.48139e-109
0.5264 	-2.51641e-109
0.5271 	-2.51609e-109
0.5278 	-2.51577e-109
0.5285 	-2.51544e-109
0.5292 	-2.51512e-109
0.5299 	-2.5148e-109
0.5306 	-1.62596e-109
0.5313 	-6.62875e-110
0.532 	-6.62785e-110
0.5327 	-6.62694e-110
0.5334 	-6.62604e-110
0.5341 	-6.62513e-110
0.5348 	-6.62423e-110
0.5355 	-4.65214e-110
0.5362 	-1.89078e-110
0.5369 	-1.69332e-110
0.5376 	-1.69307e-110
0.5383 	-1.69283e-110
0.539 	-1.69258e-110
0.5397 	-1.69234e-110
0.5404 	-1.28518e-110
0.5411 	-5.72581e-111
0.5418 	-4.19831e-111
0.5425 	-4.19767e-111
0.5432 	-4.19702e-111
0.5439 	-4.19638e-111
0.5446 	-4.19574e-111
0.5453 	-3.43136e-111
0.546 	-1.6478e-111
0.5467 	-1.01071e-111
0.5474 	-1.01055e-111
0.5481 	-1.01038e-111
0.5488 	-1.01022e-111
0.5495 	-1.01006e-111
0.5502 	-8.86251e-112
0.5509 	-4.53027e-112
0.5516 	-2.36395e-112
0.5523 	-2.36354e-112
0.553 	-2.36314e-112
0.5537 	-2.36274e-112
0.5544 	-2.36234e-112
0.5551 	-2.21623e-112
0.5558 	-1.19439e-112
0.5565 	-5.37461e-113
0.5572 	-5.37365e-113
0.5579 	-5.37269e-113
0.5586 	-5.37173e-113
0.5593 	-5.37077e-113
0.56 	-5.37043e-113
0.5607 	-3.0285e-113
0.5614 	-1.18848e-113
0.5621 	-1.18825e-113
0.5628 	-1.18803e-113
0.5635 	-1.18781e-113
0.5642 	-1.18758e-113
0.5649 	-1.18736e-113
0.5656 	-7.40226e-114
0.5663 	-2.55742e-114
0.567 	-2.55692e-114
0.5677 	-2.55641e-114
0.5684 	-2.55591e-114
0.5691 	-2.55541e-114
0.5698 	-2.5549e-114
0.5705 	-1.74732e-114
0.5712 	-6.16569e-115
0.5719 	-5.35699e-115
0.5726 	-5.35589e-115
0.5733 	-5.35479e-115
0.574 	-5.35368e-115
0.5747 	-5.35258e-115
0.5754 	-3.98969e-115
0.5761 	-1.6046e-115
0.5768 	-1.09332e-115
0.5775 	-1.09309e-115
0.5782 	-1.09285e-115
0.5789 	-1.09262e-115
0.5796 	-1.09238e-115
0.5803 	-8.8239e-116
0.581 	-3.92482e-116
0.5817 	-2.17483e-116
0.5824 	-2.17434e-116
0.5831 	-2.17385e-116
0.5838 	-2.17336e-116
0.5845 	-2.17288e-116
0.5852 	-1.8926e-116
0.5859 	-9.12143e-117
0.5866 	-4.21864e-117
0.5873 	-4.21766e-117
0.588 	-4.21667e-117
0.5887 	-4.21568e-117
0.5894 	-4.21469e-117
0.5901 	-3.94099e-117
0.5908 	-2.02814e-117
0.5915 	-7.98389e-118
0.5922 	-7.98194e-118
0.5929 	-7.98e-118
0.5936 	-7.97805e-118
0.5943 	-7.97611e-118
0.595 	-7.9751e-118
0.5957 	-4.33497e-118
0.5964 	-1.47493e-118
0.5971 	-1.47456e-118
0.5978 	-1.47419e-118
0.5985 	-1.47381e-118
0.5992 	-1.47344e-118
0.5999 	-1.47306e-118
0.6006 	-8.93778e-119
0.6013 	-2.66116e-119
0.602 	-2.66046e-119
0.6027 	-2.65976e-119
0.6034 	-2.65906e-119
0.6041 	-2.65836e-119
0.6048 	-2.65766e-119
0.6055 	-1.7823e-119
0.6062 	-5.56708e-120
0.6069 	-4.69047e-120
0.6076 	-4.68919e-120
0.6083 	-4.68791e-120
0.609 	-4.68663e-120
0.6097 	-4.68535e-120
0.6104 	-3.44474e-120
0.6111 	-1.27384e-120
0.6118 	-8.0847e-121
0.6125 	-8.08242e-121
0.6132 	-8.08013e-121
0.6139 	-8.07784e-121
0.6146 	-8.07556e-121
0.6153 	-6.46424e-121
0.616 	-2.70569e-121
0.6167 	-1.3631e-121
0.6174 	-1.3627e-121
0.6181 	-1.3623e-121
0.6188 	-1.3619e-121
0.6195 	-1.3615e-121
0.6202 	-1.17953e-121
0.6209 	-5.43144e-122
0.6216 	-2.2492e-122
0.6223 	-2.24851e-122
0.623 	-2.24783e-122
0.6237 	-2.24715e-122
0.6244 	-2.24647e-122
0.6251 	-2.0955e-122
0.6258 	-1.04121e-122
0.6265 	-3.63407e-123
0.6272 	-3.63293e-123
0.6279 	-3.63179e-123
0.6286 	-3.63066e-123
0.6293 	-3.62952e-123
0.63 	-3.62882e-123
0.6307 	-1.9188e-123
0.6314 	-5.75232e-124
0.6321 	-5.75046e-124
0.6328 	-5.7486e-124
0.6335 	-5.74675e-124
0.6342 	-5.74489e-124
0.6349 	-5.74303e-124
0.6356 	-3.41493e-124
0.6363 	-8.92453e-125
0.637 	-8.92155e-125
0.6377 	-8.91857e-125
0.6384 	-8.9156e-125
0.6391 	-8.91262e-125
0.6398 	-8.90964e-125
0.6405 	-5.88889e-125
0.6412 	-1.65977e-125
0.6419 	-1.35726e-125
0.6426 	-1.35679e-125
0.6433 	-1.35632e-125
0.644 	-1.35585e-125
0.6447 	-1.35538e-125
0.6454 	-9.86453e-126
0.6461 	-3.40939e-126
0.6468 	-2.02557e-126
0.6475 	-2.02484e-126
0.6482 	-2.02411e-126
0.6489 	-2.02338e-126
0.6496 	-2.02265e-126
0.6503 	-1.60826e-126
0.651 	-6.41864e-127
0.6517 	-2.96648e-127
0.6524 	-2.96536e-127
0.6531 	-2.96424e-127
0.6538 	-2.96311e-127
0.6545 	-2.96199e-127
0.6552 	-2.55589e-127
0.6559 	-1.13632e-127
0.6566 	-4.26445e-128
0.6573 	-4.26274e-128
0.658 	-4.26104e-128
0.6587 	-4.25934e-128
0.6594 	-4.25764e-128
0.6601 	-3.96424e-128
0.6608 	-1.91762e-128
0.6615 	-6.01849e-129
0.6622 	-6.01596e-129
0.6629 	-6.01343e-129
0.6636 	-6.0109e-129
0.6643 	-6.00837e-129
0.665 	-6.00655e-129
0.6657 	-3.10985e-129
0.6664 	-8.33873e-130
0.6671 	-8.33504e-130
0.6678 	-8.33135e-130
0.6685 	-8.32766e-130
0.6692 	-8.32397e-130
0.6699 	-8.32029e-130
0.6706 	-4.87068e-130
0.6713 	-1.13321e-130
0.672 	-1.13268e-130
0.6727 	-1.13215e-130
0.6734 	-1.13163e-130
0.6741 	-1.1311e-130
0.6748 	-1.13057e-130
0.6755 	-7.3848e-131
0.6762 	-1.89593e-131
0.6769 	-1.50319e-131
0.6776 	-1.50246e-131
0.6783 	-1.50172e-131
0.679 	-1.50099e-131
0.6797 	-1.50025e-131
0.6804 	-1.08144e-131
0.6811 	-3.48784e-132
0.6818 	-1.91709e-132
0.6825 	-1.91609e-132
0.6832 	-1.9151e-132
0.6839 	-1.9141e-132
0.6846 	-1.91311e-132
0.6853 	-1.50745e-132
0.686 	-5.61772e-133
0.6867 	-2.23947e-133
0.6874 	-2.23818e-133
0.6881 	-2.23689e-133
0.6888 	-2.2356e-133
0.6895 	-2.23431e-133
0.6902 	-1.91022e-133
0.6909 	-7.783e-134
0.6916 	-2.12263e-134
0.6923 	-2.1211e-134
0.693 	-2.11957e-134
0.6937 	-2.11804e-134
0.6944 	-2.11651e-134
0.6951 	-1.94628e-134
0.6958 	-7.62097e-135
0.6965 	-7.81023e-138
0.6972 	-6.35179e-138
0.6979 	-4.89334e-138
0.6986 	-3.4349e-138
0.6993 	-1.97646e-138
0.7 	-5.18392e-139
