0 	1
0.0007 	1
0.0014 	1
0.0021 	1
0.0028 	1
0.0035 	1
0.0042 	1
0.0049 	1
0.0056 	1
0.0063 	1
0.007 	1
0.0077 	1
0.0084 	1
0.0091 	1
0.0098 	1
0.0105 	1
0.0112 	1
0.0119 	1
0.0126 	1
0.0133 	1
0.014 	1
0.0147 	1
0.0154 	1
0.0161 	1
0.0168 	1
0.0175 	1
0.0182 	1
0.0189 	1
0.0196 	1
0.0203 	1
0.021 	1
0.0217 	1
0.0224 	1
0.0231 	1
0.0238 	1
0.0245 	1
0.0252 	1
0.0259 	1
0.0266 	1
0.0273 	1
0.028 	1
0.0287 	1
0.0294 	1
0.0301 	1
0.0308 	1
0.0315 	1
0.0322 	1
0.0329 	1
0.0336 	1
0.0343 	1
0.035 	1
0.0357 	1
0.0364 	1
0.0371 	1
0.0378 	1
0.0385 	1
0.0392 	1
0.0399 	1
0.0406 	1
0.0413 	1
0.042 	1
0.0427 	1
0.0434 	1
0.0441 	1
0.0448 	1
0.0455 	1
0.0462 	1
0.0469 	1
0.0476 	1
0.0483 	1
0.049 	1
0.0497 	1
0.0504 	1
0.0511 	1
0.0518 	1
0.0525 	1
0.0532 	1
0.0539 	1
0.0546 	1
0.0553 	1
0.056 	1
0.0567 	1
0.0574 	1
0.0581 	1
0.0588 	1
0.0595 	1
0.0602 	1
0.0609 	1
0.0616 	1
0.0623 	1
0.063 	1
0.0637 	1
0.0644 	1
0.0651 	1
0.0658 	1
0.0665 	1
0.0672 	1
0.0679 	1
0.0686 	1
0.0693 	1
0.07 	1
0.0707 	1
0.0714 	1
0.0721 	1
0.0728 	1
0.0735 	1
0.0742 	1
0.0749 	1
0.0756 	1
0.0763 	1
0.077 	1
0.0777 	1
0.0784 	1
0.0791 	1
0.0798 	1
0.0805 	1
0.0812 	1
0.0819 	1
0.0826 	1
0.0833 	1
0.084 	1
0.0847 	1
0.0854 	1
0.0861 	1
0.0868 	1
0.0875 	1
0.0882 	1
0.0889 	1
0.0896 	1
0.0903 	1
0.091 	1
0.0917 	1
0.0924 	1
0.0931 	1
0.0938 	1
0.0945 	1
0.0952 	1
0.0959 	1
0.0966 	1
0.0973 	1
0.098 	1
0.0987 	1
0.0994 	1
0.1001 	1
0.1008 	1
0.1015 	1
0.1022 	1
0.1029 	1
0.1036 	1
0.1043 	1
0.105 	1
0.1057 	1
0.1064 	1
0.1071 	1
0.1078 	1
0.1085 	1
0.1092 	1
0.1099 	1
0.1106 	1
0.1113 	1
0.112 	1
0.1127 	1
0.1134 	1
0.1141 	1
0.1148 	1
0.1155 	1
0.1162 	1
0.1169 	1
0.1176 	1
0.1183 	1
0.119 	1
0.1197 	1
0.1204 	1
0.1211 	1
0.1218 	1
0.1225 	1
0.1232 	1
0.1239 	1
0.1246 	1
0.1253 	1
0.126 	1
0.1267 	1
0.1274 	1
0.1281 	1
0.1288 	1
0.1295 	1
0.1302 	1
0.1309 	1
0.1316 	1
0.1323 	1
0.133 	1
0.1337 	1
0.1344 	1
0.1351 	1
0.1358 	1
0.1365 	1
0.1372 	1
0.1379 	1
0.1386 	1
0.1393 	1
0.14 	1
0.1407 	1
0.1414 	1
0.1421 	1
0.1428 	1
0.1435 	1
0.1442 	1
0.1449 	1
0.1456 	1
0.1463 	1
0.147 	1
0.1477 	1
0.1484 	1
0.1491 	1
0.1498 	1
0.1505 	1
0.1512 	1
0.1519 	1
0.1526 	1
0.1533 	1
0.154 	1
0.1547 	1
0.1554 	1
0.1561 	1
0.1568 	1
0.1575 	1
0.1582 	1
0.1589 	1
0.1596 	1
0.1603 	1
0.161 	1
0.1617 	1
0.1624 	1
0.1631 	1
0.1638 	1
0.1645 	1
0.1652 	1
0.1659 	1
0.1666 	1
0.1673 	1
0.168 	1
0.1687 	1
0.1694 	1
0.1701 	1
0.1708 	1
0.1715 	1
0.1722 	1
0.1729 	1
0.1736 	1
0.1743 	1
0.175 	1
0.1757 	1
0.1764 	1
0.1771 	1
0.1778 	1
0.1785 	1
0.1792 	1
0.1799 	1
0.1806 	1
0.1813 	1
0.182 	1
0.1827 	1
0.1834 	1
0.1841 	1
0.1848 	1
0.1855 	1
0.1862 	1
0.1869 	1
0.1876 	1
0.1883 	1
0.189 	1
0.1897 	1
0.1904 	1
0.1911 	1
0.1918 	1
0.1925 	1
0.1932 	1
0.1939 	1
0.1946 	1
0.1953 	1
0.196 	1
0.1967 	1
0.1974 	1
0.1981 	1
0.1988 	1
0.1995 	1
0.2002 	1
0.2009 	1
0.2016 	1
0.2023 	1
0.203 	1
0.2037 	1
0.2044 	1
0.2051 	0.999997
0.2058 	0.999974
0.2065 	0.999951
0.2072 	0.999929
0.2079 	0.999906
0.2086 	0.999884
0.2093 	0.999861
0.21 	0.999839
0.2107 	0.998129
0.2114 	0.996418
0.2121 	0.994708
0.2128 	0.992997
0.2135 	0.991287
0.2142 	0.989576
0.2149 	0.987865
0.2156 	0.968408
0.2163 	0.945983
0.217 	0.923558
0.2177 	0.901133
0.2184 	0.878707
0.2191 	0.856282
0.2198 	0.833857
0.2205 	0.783567
0.2212 	0.722135
0.2219 	0.660703
0.2226 	0.59927
0.2233 	0.537838
0.224 	0.476406
0.2247 	0.414974
0.2254 	0.361589
0.2261 	0.314282
0.2268 	0.266976
0.2275 	0.21967
0.2282 	0.172364
0.2289 	0.125058
0.2296 	0.0777522
0.2303 	0.0478022
0.231 	0.0409566
0.2317 	0.0341112
0.2324 	0.0272659
0.2331 	0.0204207
0.2338 	0.0135755
0.2345 	0.00673021
0.2352 	0.00177371
0.2359 	0.001528
0.2366 	0.00128231
0.2373 	0.00103662
0.238 	0.000790931
0.2387 	0.000545244
0.2394 	0.000299557
0.2401 	8.73848e-05
0.2408 	7.55235e-05
0.2415 	6.36626e-05
0.2422 	5.18027e-05
0.2429 	3.99428e-05
0.2436 	2.8083e-05
0.2443 	1.62231e-05
0.245 	4.36872e-06
0.2457 	3.78492e-06
0.2464 	3.20134e-06
0.2471 	2.61786e-06
0.2478 	2.03437e-06
0.2485 	1.45089e-06
0.2492 	8.67408e-07
0.2499 	2.83924e-07
0.2506 	1.77766e-07
0.2513 	1.50849e-07
0.252 	1.23943e-07
0.2527 	9.70363e-08
0.2534 	7.01299e-08
0.2541 	4.32236e-08
0.2548 	1.63172e-08
0.2555 	7.81409e-09
0.2562 	6.65473e-09
0.2569 	5.49624e-09
0.2576 	4.33781e-09
0.2583 	3.17938e-09
0.259 	2.02095e-09
0.2597 	8.62524e-10
0.2604 	3.3922e-10
0.2611 	2.91302e-10
0.2618 	2.43436e-10
0.2625 	1.95584e-10
0.2632 	1.47732e-10
0.2639 	9.98802e-11
0.2646 	5.20284e-11
0.2653 	2.3564e-11
0.266 	2.08977e-11
0.2667 	1.82346e-11
0.2674 	1.55733e-11
0.2681 	1.2912e-11
0.2688 	1.02507e-11
0.2695 	7.58945e-12
0.2702 	5.55501e-12
0.2709 	5.0843e-12
0.2716 	4.61415e-12
0.2723 	4.14456e-12
0.273 	3.67498e-12
0.2737 	3.2054e-12
0.2744 	2.73582e-12
0.2751 	2.30774e-12
0.2758 	2.12797e-12
0.2765 	1.94844e-12
0.2772 	1.76934e-12
0.2779 	1.59023e-12
0.2786 	1.41113e-12
0.2793 	1.23203e-12
0.28 	1.05296e-12
0.2807 	9.64206e-13
0.2814 	8.75564e-13
0.2821 	7.87282e-13
0.2828 	6.99e-13
0.2835 	6.10718e-13
0.2842 	5.22436e-13
0.2849 	4.34154e-13
0.2856 	3.87174e-13
0.2863 	3.47083e-13
0.287 	3.07227e-13
0.2877 	2.67372e-13
0.2884 	2.27517e-13
0.2891 	1.87661e-13
0.2898 	1.47806e-13
0.2905 	1.26377e-13
0.2912 	1.12307e-13
0.2919 	9.83316e-14
0.2926 	8.43633e-14
0.2933 	7.0395e-14
0.294 	5.64267e-14
0.2947 	4.24583e-14
0.2954 	3.42425e-14
0.2961 	3.03346e-14
0.2968 	2.6451e-14
0.2975 	2.25739e-14
0.2982 	1.86969e-14
0.2989 	1.48199e-14
0.2996 	1.09428e-14
0.3003 	8.31838e-15
0.301 	7.36142e-15
0.3017 	6.40968e-15
0.3024 	5.46086e-15
0.3031 	4.51203e-15
0.3038 	3.56321e-15
0.3045 	2.61438e-15
0.3052 	1.87432e-15
0.3059 	1.65516e-15
0.3066 	1.43699e-15
0.3073 	1.21982e-15
0.308 	1.00265e-15
0.3087 	7.85483e-16
0.3094 	5.68312e-16
0.3101 	3.75815e-16
0.3108 	3.3087e-16
0.3115 	2.86079e-16
0.3122 	2.41566e-16
0.3129 	1.97053e-16
0.3136 	1.52539e-16
0.3143 	1.08026e-16
0.315 	6.35312e-17
0.3157 	5.58062e-17
0.3164 	4.81003e-17
0.3171 	4.0456e-17
0.3178 	3.28118e-17
0.3185 	2.51675e-17
0.3192 	1.75233e-17
0.3199 	9.879e-18
0.3206 	7.85003e-18
0.3213 	6.75436e-18
0.322 	5.66956e-18
0.3227 	4.58475e-18
0.3234 	3.49995e-18
0.3241 	2.41515e-18
0.3248 	1.33035e-18
0.3255 	9.27729e-19
0.3262 	7.97367e-19
0.3269 	6.68353e-19
0.3276 	5.39443e-19
0.3283 	4.10534e-19
0.329 	2.81624e-19
0.3297 	1.52714e-19
0.3304 	9.02486e-20
0.3311 	7.75194e-20
0.3318 	6.49063e-20
0.3325 	5.23247e-20
0.3332 	3.97432e-20
0.3339 	2.71616e-20
0.3346 	1.45801e-20
0.3353 	6.97448e-21
0.336 	5.99011e-21
0.3367 	5.01339e-21
0.3374 	4.04091e-21
0.3381 	3.06843e-21
0.3388 	2.09595e-21
0.3395 	1.12347e-21
0.3402 	4.12706e-22
0.3409 	3.54634e-22
0.3416 	2.9693e-22
0.3423 	2.39592e-22
0.343 	1.82255e-22
0.3437 	1.24917e-22
0.3444 	6.75801e-23
0.3451 	1.81014e-23
0.3458 	1.55772e-23
0.3465 	1.30652e-23
0.3472 	1.0575e-23
0.3479 	8.08483e-24
0.3486 	5.59463e-24
0.3493 	3.10444e-24
0.35 	6.15525e-25
0.3507 	5.31669e-25
0.3514 	4.48103e-25
0.3521 	3.65501e-25
0.3528 	2.82899e-25
0.3535 	2.00298e-25
0.3542 	1.17696e-25
0.3549 	3.50941e-26
0.3556 	2.06694e-26
0.3563 	1.75625e-26
0.357 	1.45002e-26
0.3577 	1.14379e-26
0.3584 	8.37566e-27
0.3591 	5.31339e-27
0.3598 	2.25112e-27
0.3605 	1.24523e-27
0.3612 	1.05985e-27
0.3619 	8.76926e-28
0.3626 	6.94191e-28
0.3633 	5.11457e-28
0.364 	3.28723e-28
0.3647 	1.45989e-28
0.3654 	6.24367e-29
0.3661 	5.31161e-29
0.3668 	4.38901e-29
0.3675 	3.469e-29
0.3682 	2.54898e-29
0.3689 	1.62897e-29
0.3696 	7.08956e-30
0.3703 	1.72748e-30
0.371 	1.47186e-30
0.3717 	1.21818e-30
0.3724 	9.65568e-31
0.3731 	7.12957e-31
0.3738 	4.60345e-31
0.3745 	2.07734e-31
0.3752 	2.63297e-32
0.3759 	2.24807e-32
0.3766 	1.86505e-32
0.3773 	1.48392e-32
0.378 	1.10279e-32
0.3787 	7.21662e-33
0.3794 	3.40532e-33
0.3801 	1.37695e-34
0.3808 	1.17941e-34
0.3815 	9.82333e-35
0.3822 	7.86086e-35
0.3829 	5.89839e-35
0.3836 	3.93591e-35
0.3843 	1.97344e-35
0.385 	1.20187e-37
0.3857 	1.0333e-37
0.3864 	8.64859e-38
0.3871 	6.96716e-38
0.3878 	5.28574e-38
0.3885 	3.60432e-38
0.3892 	1.9229e-38
0.3899 	2.41473e-39
0.3906 	1.90888e-41
0.3913 	1.60373e-41
0.392 	1.30376e-41
0.3927 	1.00379e-41
0.3934 	7.03821e-42
0.3941 	4.03853e-42
0.3948 	1.03884e-42
0.3955 	1.64659e-43
0.3962 	1.38479e-43
0.3969 	1.13252e-43
0.3976 	8.80978e-44
0.3983 	6.29439e-44
0.399 	3.77899e-44
0.3997 	1.26359e-44
0.4004 	1.71519e-45
0.4011 	1.44642e-45
0.4018 	1.18612e-45
0.4025 	9.28136e-46
0.4032 	6.70147e-46
0.4039 	4.12158e-46
0.4046 	1.54169e-46
0.4053 	6.45818e-48
0.406 	5.46635e-48
0.4067 	4.4992e-48
0.4074 	3.54574e-48
0.4081 	2.59229e-48
0.4088 	1.63884e-48
0.4095 	6.85382e-49
0.4102 	4.64968e-51
0.4109 	3.95236e-51
0.4116 	3.26737e-51
0.4123 	2.59469e-51
0.413 	1.92201e-51
0.4137 	1.24933e-51
0.4144 	5.76649e-52
0.4151 	4.14523e-55
0.4158 	3.53797e-55
0.4165 	2.93774e-55
0.4172 	2.35019e-55
0.4179 	1.76264e-55
0.4186 	1.17509e-55
0.4193 	5.87536e-56
0.42 	2.94251e-59
0.4207 	2.52026e-59
0.4214 	2.10108e-59
0.4221 	1.69254e-59
0.4228 	1.28399e-59
0.4235 	8.75449e-60
0.4242 	4.66906e-60
0.4249 	5.83628e-61
0.4256 	1.89171e-63
0.4263 	1.59486e-63
0.427 	1.30437e-63
0.4277 	1.01388e-63
0.4284 	7.23393e-64
0.4291 	4.32904e-64
0.4298 	1.42414e-64
0.4305 	5.95851e-65
0.4312 	5.96053e-65
0.4319 	5.9685e-65
0.4326 	5.97692e-65
0.4333 	5.98535e-65
0.434 	5.99377e-65
0.4347 	6.0022e-65
0.4354 	5.98941e-65
0.4361 	5.96081e-65
0.4368 	5.9119e-65
0.4375 	5.85745e-65
0.4382 	5.80299e-65
0.4389 	5.74854e-65
0.4396 	5.69409e-65
0.4403 	5.6341e-65
0.441 	5.56697e-65
0.4417 	5.4585e-65
0.4424 	5.32707e-65
0.4431 	5.19564e-65
0.4438 	5.0642e-65
0.4445 	4.93277e-65
0.4452 	4.80572e-65
0.4459 	4.69052e-65
0.4466 	4.51889e-65
0.4473 	4.29083e-65
0.448 	4.06278e-65
0.4487 	3.83472e-65
0.4494 	3.60666e-65
0.4501 	3.39324e-65
0.4508 	3.27026e-65
0.4515 	3.10398e-65
0.4522 	2.85975e-65
0.4529 	2.61553e-65
0.4536 	2.3713e-65
0.4543 	2.12708e-65
0.455 	2.09567e-65
0.4557 	1.79882e-65
0.4564 	1.69735e-65
0.4571 	1.53096e-65
0.4578 	1.36456e-65
0.4585 	1.19816e-65
0.4592 	1.03176e-65
0.4599 	8.65359e-66
0.4606 	8.05182e-66
0.4613 	7.59889e-66
0.462 	6.75876e-66
0.4627 	5.91863e-66
0.4634 	5.0785e-66
0.4641 	4.23837e-66
0.4648 	3.39824e-66
0.4655 	3.0348e-66
0.4662 	2.86275e-66
0.4669 	2.5335e-66
0.4676 	2.19216e-66
0.4683 	1.85081e-66
0.469 	1.50947e-66
0.4697 	1.16812e-66
0.4704 	9.88102e-67
0.4711 	9.29352e-67
0.4718 	8.2522e-67
0.4725 	7.08711e-67
0.4732 	5.92203e-67
0.4739 	4.75695e-67
0.4746 	3.59186e-67
0.4753 	2.85112e-67
0.476 	2.67717e-67
0.4767 	2.39339e-67
0.4774 	2.0486e-67
0.4781 	1.70381e-67
0.4788 	1.35901e-67
0.4795 	1.01422e-67
0.4802 	7.54479e-68
0.4809 	7.07718e-68
0.4816 	6.38033e-68
0.4823 	5.45425e-68
0.483 	4.52816e-68
0.4837 	3.60207e-68
0.4844 	2.67599e-68
0.4851 	1.86507e-68
0.4858 	1.74684e-68
0.4865 	1.58739e-68
0.4872 	1.35375e-68
0.4879 	1.12012e-68
0.4886 	8.86478e-69
0.4893 	6.5284e-69
0.49 	4.29256e-69
0.4907 	3.91784e-69
0.4914 	3.58734e-69
0.4921 	3.04872e-69
0.4928 	2.5101e-69
0.4935 	1.97148e-69
0.4942 	1.43287e-69
0.4949 	8.9425e-70
0.4956 	7.67186e-70
0.4963 	7.04865e-70
0.497 	5.90962e-70
0.4977 	4.7706e-70
0.4984 	3.63157e-70
0.4991 	2.49254e-70
0.4998 	1.35352e-70
0.5005 	9.72178e-71
0.5012 	8.93823e-71
0.5019 	7.49824e-71
0.5026 	6.00776e-71
0.5033 	4.51727e-71
0.504 	3.02679e-71
0.5047 	1.53631e-71
0.5054 	8.57312e-72
0.5061 	7.86455e-72
0.5068 	6.65406e-72
0.5075 	5.30669e-72
0.5082 	3.95932e-72
0.5089 	2.61195e-72
0.5096 	1.26457e-72
0.5103 	4.77476e-73
0.511 	4.36454e-73
0.5117 	3.73644e-73
0.5124 	2.98729e-73
0.5131 	2.23815e-73
0.5138 	1.48901e-73
0.5145 	7.39868e-74
0.5152 	2.00228e-74
0.5159 	1.83431e-74
0.5166 	1.59116e-74
0.5173 	1.27282e-74
0.518 	9.54478e-75
0.5187 	6.36136e-75
0.5194 	3.17794e-75
0.5201 	4.45256e-76
0.5208 	4.0758e-76
0.5215 	3.5829e-76
0.5222 	2.88093e-76
0.5229 	2.17896e-76
0.5236 	1.47699e-76
0.5243 	7.75027e-77
0.525 	7.39509e-78
0.5257 	6.83533e-78
0.5264 	6.10204e-78
0.5271 	4.51342e-78
0.5278 	2.92479e-78
0.5285 	1.33616e-78
0.5292 	-2.52461e-79
0.5299 	-1.84109e-78
0.5306 	-1.70853e-78
0.5313 	-1.32068e-78
0.532 	-1.33529e-78
0.5327 	-1.3499e-78
0.5334 	-1.3645e-78
0.5341 	-1.37911e-78
0.5348 	-1.39372e-78
0.5355 	-1.17006e-78
0.5362 	-8.50882e-79
0.5369 	-8.29079e-79
0.5376 	-8.30151e-79
0.5383 	-8.31222e-79
0.539 	-8.32294e-79
0.5397 	-8.33366e-79
0.5404 	-7.16205e-79
0.5411 	-5.10193e-79
0.5418 	-4.66242e-79
0.5425 	-4.66489e-79
0.5432 	-4.66735e-79
0.5439 	-4.66982e-79
0.5446 	-4.67229e-79
0.5453 	-4.14764e-79
0.546 	-2.91878e-79
0.5467 	-2.48012e-79
0.5474 	-2.48047e-79
0.5481 	-2.48082e-79
0.5488 	-2.48118e-79
0.5495 	-2.48153e-79
0.5502 	-2.28573e-79
0.5509 	-1.59839e-79
0.5516 	-1.25474e-79
0.5523 	-1.25478e-79
0.553 	-1.25482e-79
0.5537 	-1.25485e-79
0.5544 	-1.25489e-79
0.5551 	-1.20321e-79
0.5558 	-8.40027e-80
0.5565 	-6.0655e-80
0.5572 	-6.06552e-80
0.5579 	-6.06554e-80
0.5586 	-6.06556e-80
0.5593 	-6.06558e-80
0.56 	-6.06723e-80
0.5607 	-4.24359e-80
0.5614 	-2.81133e-80
0.5621 	-2.81128e-80
0.5628 	-2.81124e-80
0.5635 	-2.8112e-80
0.5642 	-2.81116e-80
0.5649 	-2.81111e-80
0.5656 	-2.06334e-80
0.5663 	-1.25281e-80
0.567 	-1.25277e-80
0.5677 	-1.25273e-80
0.5684 	-1.25269e-80
0.5691 	-1.25266e-80
0.5698 	-1.25262e-80
0.5705 	-9.66903e-81
0.5712 	-5.6665e-81
0.5719 	-5.38039e-81
0.5726 	-5.38017e-81
0.5733 	-5.37994e-81
0.574 	-5.37972e-81
0.5747 	-5.37949e-81
0.5754 	-4.37277e-81
0.5761 	-2.60971e-81
0.5768 	-2.23182e-81
0.5775 	-2.2317e-81
0.5782 	-2.23158e-81
0.5789 	-2.23147e-81
0.5796 	-2.23135e-81
0.5803 	-1.91105e-81
0.581 	-1.16301e-81
0.5817 	-8.95813e-82
0.5824 	-8.95756e-82
0.5831 	-8.95699e-82
0.5838 	-8.95643e-82
0.5845 	-8.95586e-82
0.5852 	-8.08142e-82
0.5859 	-5.01721e-82
0.5866 	-3.48497e-82
0.5873 	-3.48471e-82
0.588 	-3.48445e-82
0.5887 	-3.48419e-82
0.5894 	-3.48393e-82
0.5901 	-3.31082e-82
0.5908 	-2.09656e-82
0.5915 	-1.31592e-82
0.5922 	-1.31581e-82
0.5929 	-1.31569e-82
0.5936 	-1.31558e-82
0.5943 	-1.31547e-82
0.595 	-1.3157e-82
0.5957 	-8.49285e-83
0.5964 	-4.82907e-83
0.5971 	-4.82859e-83
0.5978 	-4.82811e-83
0.5985 	-4.82762e-83
0.5992 	-4.82714e-83
0.5999 	-4.82666e-83
0.6006 	-3.33789e-83
0.6013 	-1.72422e-83
0.602 	-1.72403e-83
0.6027 	-1.72383e-83
0.6034 	-1.72364e-83
0.6041 	-1.72344e-83
0.6048 	-1.72324e-83
0.6055 	-1.27393e-83
0.6062 	-6.44559e-84
0.6069 	-5.99532e-84
0.6076 	-5.99456e-84
0.6083 	-5.99379e-84
0.609 	-5.99302e-84
0.6097 	-5.99226e-84
0.6104 	-4.7257e-84
0.6111 	-2.50798e-84
0.6118 	-2.03253e-84
0.6125 	-2.03224e-84
0.6132 	-2.03195e-84
0.6139 	-2.03166e-84
0.6146 	-2.03137e-84
0.6153 	-1.70537e-84
0.616 	-9.44251e-85
0.6167 	-6.72355e-85
0.6174 	-6.72249e-85
0.6181 	-6.72143e-85
0.6188 	-6.72036e-85
0.6195 	-6.7193e-85
0.6202 	-5.99212e-85
0.6209 	-3.44549e-85
0.6216 	-2.17199e-85
0.6223 	-2.17161e-85
0.623 	-2.17124e-85
0.6237 	-2.17086e-85
0.6244 	-2.17048e-85
0.6251 	-2.05176e-85
0.6258 	-1.2203e-85
0.6265 	-6.85738e-86
0.6272 	-6.85608e-86
0.6279 	-6.85478e-86
0.6286 	-6.85348e-86
0.6293 	-6.85217e-86
0.63 	-6.85265e-86
0.6307 	-4.20079e-86
0.6314 	-2.11752e-86
0.6321 	-2.11709e-86
0.6328 	-2.11665e-86
0.6335 	-2.11621e-86
0.6342 	-2.11578e-86
0.6349 	-2.11534e-86
0.6356 	-1.40735e-86
0.6363 	-6.39998e-87
0.637 	-6.39857e-87
0.6377 	-6.39715e-87
0.6384 	-6.39574e-87
0.6391 	-6.39432e-87
0.6398 	-6.39291e-87
0.6405 	-4.59399e-87
0.6412 	-2.07445e-87
0.6419 	-1.89406e-87
0.6426 	-1.89362e-87
0.6433 	-1.89317e-87
0.644 	-1.89272e-87
0.6447 	-1.89227e-87
0.6454 	-1.4627e-87
0.6461 	-7.10666e-88
0.6468 	-5.49408e-88
0.6475 	-5.49271e-88
0.6482 	-5.49133e-88
0.6489 	-5.48996e-88
0.6496 	-5.48858e-88
0.6503 	-4.5464e-88
0.651 	-2.34746e-88
0.6517 	-1.56186e-88
0.6524 	-1.56145e-88
0.6531 	-1.56103e-88
0.6538 	-1.56062e-88
0.6545 	-1.56021e-88
0.6552 	-1.38015e-88
0.6559 	-7.4994e-89
0.6566 	-4.34776e-89
0.6573 	-4.34657e-89
0.658 	-4.34537e-89
0.6587 	-4.34417e-89
0.6594 	-4.34297e-89
0.6601 	-4.08986e-89
0.6608 	-2.31958e-89
0.6615 	-1.18143e-89
0.6622 	-1.18109e-89
0.6629 	-1.18075e-89
0.6636 	-1.18041e-89
0.6643 	-1.18007e-89
0.665 	-1.18004e-89
0.6657 	-6.93303e-90
0.6664 	-3.1091e-90
0.6671 	-3.10817e-90
0.6678 	-3.10725e-90
0.6685 	-3.10632e-90
0.6692 	-3.1054e-90
0.6699 	-3.10447e-90
0.6706 	-1.98872e-90
0.6713 	-7.79465e-91
0.672 	-7.79222e-91
0.6727 	-7.7898e-91
0.6734 	-7.78737e-91
0.6741 	-7.78494e-91
0.6748 	-7.78252e-91
0.6755 	-5.39278e-91
0.6762 	-2.04596e-91
0.6769 	-1.80634e-91
0.6776 	-1.80574e-91
0.6783 	-1.80514e-91
0.679 	-1.80454e-91
0.6797 	-1.80393e-91
0.6804 	-1.34477e-91
0.6811 	-5.41039e-92
0.6818 	-3.68704e-92
0.6825 	-3.68567e-92
0.6832 	-3.68431e-92
0.6839 	-3.68294e-92
0.6846 	-3.68158e-92
0.6853 	-2.94521e-92
0.686 	-1.22702e-92
0.6867 	-6.13209e-93
0.6874 	-6.12938e-93
0.6881 	-6.12667e-93
0.6888 	-6.12396e-93
0.6895 	-6.12125e-93
0.6902 	-5.25783e-93
0.6909 	-2.23779e-93
0.6916 	-7.27547e-94
0.6923 	-7.27114e-94
0.693 	-7.26681e-94
0.6937 	-7.26248e-94
0.6944 	-7.25815e-94
0.6951 	-6.67602e-94
0.6958 	-2.61403e-94
0.6965 	-2.57891e-97
0.6972 	-2.0978e-97
0.6979 	-1.61669e-97
0.6986 	-1.13559e-97
0.6993 	-6.54478e-98
0.7 	-1.73588e-98
