0 	1
0.0007 	1
0.0014 	1
0.0021 	1
0.0028 	1
0.0035 	1
0.0042 	1
0.0049 	1
0.0056 	1
0.0063 	1
0.007 	1
0.0077 	1
0.0084 	1
0.0091 	1
0.0098 	1
0.0105 	1
0.0112 	1
0.0119 	1
0.0126 	1
0.0133 	1
0.014 	1
0.0147 	1
0.0154 	1
0.0161 	1
0.0168 	1
0.0175 	1
0.0182 	1
0.0189 	1
0.0196 	1
0.0203 	1
0.021 	1
0.0217 	1
0.0224 	1
0.0231 	1
0.0238 	1
0.0245 	1
0.0252 	1
0.0259 	1
0.0266 	1
0.0273 	1
0.028 	1
0.0287 	1
0.0294 	1
0.0301 	1
0.0308 	1
0.0315 	1
0.0322 	1
0.0329 	1
0.0336 	1
0.0343 	1
0.035 	1
0.0357 	1
0.0364 	1
0.0371 	1
0.0378 	1
0.0385 	1
0.0392 	1
0.0399 	1
0.0406 	1
0.0413 	1
0.042 	1
0.0427 	1
0.0434 	1
0.0441 	1
0.0448 	1
0.0455 	1
0.0462 	1
0.0469 	1
0.0476 	1
0.0483 	1
0.049 	1
0.0497 	1
0.0504 	1
0.0511 	1
0.0518 	1
0.0525 	1
0.0532 	1
0.0539 	1
0.0546 	1
0.0553 	1
0.056 	1
0.0567 	1
0.0574 	1
0.0581 	1
0.0588 	1
0.0595 	1
0.0602 	1
0.0609 	1
0.0616 	1
0.0623 	1
0.063 	1
0.0637 	1
0.0644 	1
0.0651 	1
0.0658 	1
0.0665 	1
0.0672 	1
0.0679 	1
0.0686 	1
0.0693 	1
0.07 	1
0.0707 	1
0.0714 	1
0.0721 	1
0.0728 	1
0.0735 	1
0.0742 	1
0.0749 	1
0.0756 	1
0.0763 	1
0.077 	1
0.0777 	1
0.0784 	1
0.0791 	1
0.0798 	1
0.0805 	1
0.0812 	1
0.0819 	1
0.0826 	1
0.0833 	1
0.084 	1
0.0847 	1
0.0854 	1
0.0861 	1
0.0868 	1
0.0875 	1
0.0882 	1
0.0889 	1
0.0896 	1
0.0903 	1
0.091 	1
0.0917 	1
0.0924 	1
0.0931 	1
0.0938 	1
0.0945 	1
0.0952 	1
0.0959 	1
0.0966 	1
0.0973 	1
0.098 	1
0.0987 	1
0.0994 	1
0.1001 	1
0.1008 	1
0.1015 	1
0.1022 	1
0.1029 	1
0.1036 	1
0.1043 	1
0.105 	1
0.1057 	1
0.1064 	1
0.1071 	1
0.1078 	1
0.1085 	1
0.1092 	1
0.1099 	1
0.1106 	1
0.1113 	1
0.112 	1
0.1127 	1
0.1134 	1
0.1141 	1
0.1148 	1
0.1155 	1
0.1162 	1
0.1169 	1
0.1176 	1
0.1183 	1
0.119 	1
0.1197 	1
0.1204 	1
0.1211 	1
0.1218 	1
0.1225 	1
0.1232 	1
0.1239 	1
0.1246 	1
0.1253 	1
0.126 	1
0.1267 	1
0.1274 	1
0.1281 	1
0.1288 	1
0.1295 	1
0.1302 	1
0.1309 	1
0.1316 	1
0.1323 	1
0.133 	1
0.1337 	1
0.1344 	1
0.1351 	1
0.1358 	1
0.1365 	1
0.1372 	1
0.1379 	1
0.1386 	1
0.1393 	1
0.14 	1
0.1407 	1
0.1414 	1
0.1421 	1
0.1428 	1
0.1435 	1
0.1442 	1
0.1449 	1
0.1456 	1
0.1463 	1
0.147 	1
0.1477 	1
0.1484 	1
0.1491 	1
0.1498 	1
0.1505 	1
0.1512 	1
0.1519 	1
0.1526 	1
0.1533 	1
0.154 	1
0.1547 	1
0.1554 	1
0.1561 	1
0.1568 	1
0.1575 	1
0.1582 	1
0.1589 	1
0.1596 	1
0.1603 	1
0.161 	1
0.1617 	1
0.1624 	1
0.1631 	1
0.1638 	1
0.1645 	1
0.1652 	1
0.1659 	1
0.1666 	1
0.1673 	1
0.168 	1
0.1687 	1
0.1694 	1
0.1701 	1
0.1708 	1
0.1715 	1
0.1722 	1
0.1729 	1
0.1736 	1
0.1743 	1
0.175 	1
0.1757 	1
0.1764 	1
0.1771 	1
0.1778 	1
0.1785 	1
0.1792 	1
0.1799 	1
0.1806 	1
0.1813 	1
0.182 	1
0.1827 	1
0.1834 	1
0.1841 	1
0.1848 	1
0.1855 	1
0.1862 	1
0.1869 	1
0.1876 	1
0.1883 	1
0.189 	1
0.1897 	1
0.1904 	1
0.1911 	1
0.1918 	1
0.1925 	1
0.1932 	1
0.1939 	1
0.1946 	1
0.1953 	1
0.196 	1
0.1967 	1
0.1974 	1
0.1981 	1
0.1988 	1
0.1995 	1
0.2002 	1
0.2009 	1
0.2016 	1
0.2023 	1
0.203 	1
0.2037 	1
0.2044 	1
0.2051 	1
0.2058 	1
0.2065 	1
0.2072 	1
0.2079 	1
0.2086 	1
0.2093 	1
0.21 	1
0.2107 	1
0.2114 	1
0.2121 	1
0.2128 	1
0.2135 	1
0.2142 	1
0.2149 	1
0.2156 	1
0.2163 	1
0.217 	1
0.2177 	1
0.2184 	1
0.2191 	1
0.2198 	1
0.2205 	1
0.2212 	1
0.2219 	1
0.2226 	1
0.2233 	1
0.224 	1
0.2247 	1
0.2254 	1
0.2261 	1
0.2268 	1
0.2275 	1
0.2282 	1
0.2289 	1
0.2296 	1
0.2303 	0.999985
0.231 	0.999951
0.2317 	0.999917
0.2324 	0.999883
0.2331 	0.999849
0.2338 	0.999815
0.2345 	0.999782
0.2352 	0.999133
0.2359 	0.996947
0.2366 	0.994762
0.2373 	0.992576
0.238 	0.99039
0.2387 	0.988205
0.2394 	0.986019
0.2401 	0.980539
0.2408 	0.955292
0.2415 	0.930045
0.2422 	0.904796
0.2429 	0.879548
0.2436 	0.854299
0.2443 	0.829051
0.245 	0.803801
0.2457 	0.741735
0.2464 	0.679669
0.2471 	0.617602
0.2478 	0.555535
0.2485 	0.493468
0.2492 	0.431401
0.2499 	0.369334
0.2506 	0.322319
0.2513 	0.277816
0.252 	0.233313
0.2527 	0.188811
0.2534 	0.144308
0.2541 	0.0998056
0.2548 	0.0553031
0.2555 	0.0384919
0.2562 	0.0327553
0.2569 	0.0270193
0.2576 	0.0212833
0.2583 	0.0155474
0.259 	0.00981141
0.2597 	0.00407544
0.2604 	0.00149476
0.2611 	0.00128018
0.2618 	0.00106561
0.2625 	0.00085106
0.2632 	0.000636505
0.2639 	0.00042195
0.2646 	0.000207396
0.2653 	7.99726e-05
0.266 	6.87071e-05
0.2667 	5.74428e-05
0.2674 	4.61792e-05
0.2681 	3.49156e-05
0.2688 	2.3652e-05
0.2695 	1.23884e-05
0.2702 	4.17759e-06
0.2709 	3.59724e-06
0.2716 	3.01696e-06
0.2723 	2.43674e-06
0.273 	1.85652e-06
0.2737 	1.2763e-06
0.2744 	6.96084e-07
0.2751 	1.94957e-07
0.2758 	1.68229e-07
0.2765 	1.41505e-07
0.2772 	1.14786e-07
0.2779 	8.8068e-08
0.2786 	6.13496e-08
0.2793 	3.46313e-08
0.28 	7.91395e-09
0.2807 	6.84555e-09
0.2814 	5.77733e-09
0.2821 	4.70965e-09
0.2828 	3.64197e-09
0.2835 	2.5743e-09
0.2842 	1.50662e-09
0.2849 	4.38938e-10
0.2856 	2.54273e-10
0.2863 	2.16731e-10
0.287 	1.79227e-10
0.2877 	1.41723e-10
0.2884 	1.04218e-10
0.2891 	6.67143e-11
0.2898 	2.92103e-11
0.2905 	1.73667e-11
0.2912 	1.57852e-11
0.2919 	1.42059e-11
0.2926 	1.26269e-11
0.2933 	1.10479e-11
0.294 	9.46882e-12
0.2947 	7.88978e-12
0.2954 	7.00148e-12
0.2961 	6.63116e-12
0.2968 	6.26096e-12
0.2975 	5.89079e-12
0.2982 	5.52062e-12
0.2989 	5.15045e-12
0.2996 	4.78028e-12
0.3003 	4.43347e-12
0.301 	4.1178e-12
0.3017 	3.80206e-12
0.3024 	3.48629e-12
0.3031 	3.17051e-12
0.3038 	2.85474e-12
0.3045 	2.53896e-12
0.3052 	2.25442e-12
0.3059 	2.04796e-12
0.3066 	1.84146e-12
0.3073 	1.63494e-12
0.308 	1.42842e-12
0.3087 	1.22189e-12
0.3094 	1.01537e-12
0.3101 	8.26684e-13
0.3108 	7.45024e-13
0.3115 	6.63356e-13
0.3122 	5.81673e-13
0.3129 	4.9999e-13
0.3136 	4.18307e-13
0.3143 	3.36624e-13
0.315 	2.54943e-13
0.3157 	2.29198e-13
0.3164 	2.0345e-13
0.3171 	1.7769e-13
0.3178 	1.5193e-13
0.3185 	1.26169e-13
0.3192 	1.00409e-13
0.3199 	7.46486e-14
0.3206 	6.44605e-14
0.3213 	5.68666e-14
0.322 	4.92657e-14
0.3227 	4.16649e-14
0.3234 	3.40641e-14
0.3241 	2.64632e-14
0.3248 	1.88624e-14
0.3255 	1.53399e-14
0.3262 	1.34485e-14
0.3269 	1.15548e-14
0.3276 	9.66091e-15
0.3283 	7.76704e-15
0.329 	5.87317e-15
0.3297 	3.9793e-15
0.3304 	2.95329e-15
0.3311 	2.57806e-15
0.3318 	2.20234e-15
0.3325 	1.82648e-15
0.3332 	1.45062e-15
0.3339 	1.07476e-15
0.3346 	6.98896e-16
0.3353 	4.58619e-16
0.336 	3.99092e-16
0.3367 	3.3948e-16
0.3374 	2.79822e-16
0.3381 	2.20163e-16
0.3388 	1.60504e-16
0.3395 	1.00845e-16
0.3402 	5.61212e-17
0.3409 	4.87269e-17
0.3416 	4.13219e-17
0.3423 	3.39062e-17
0.343 	2.64905e-17
0.3437 	1.90748e-17
0.3444 	1.16592e-17
0.3451 	5.20424e-18
0.3458 	4.51189e-18
0.3465 	3.81862e-18
0.3472 	3.12368e-18
0.3479 	2.42874e-18
0.3486 	1.7338e-18
0.3493 	1.03887e-18
0.35 	3.43961e-19
0.3507 	2.98028e-19
0.3514 	2.52048e-19
0.3521 	2.05892e-19
0.3528 	1.59736e-19
0.3535 	1.1358e-19
0.3542 	6.74244e-20
0.3549 	2.12684e-20
0.3556 	1.29734e-20
0.3563 	1.09852e-20
0.357 	8.9848e-21
0.3577 	6.98442e-21
0.3584 	4.98404e-21
0.3591 	2.98366e-21
0.3598 	9.83283e-22
0.3605 	3.72544e-22
0.3612 	3.17526e-22
0.3619 	2.62036e-22
0.3626 	2.06511e-22
0.3633 	1.50985e-22
0.364 	9.54591e-23
0.3647 	3.99333e-23
0.3654 	1.49609e-23
0.3661 	1.28989e-23
0.3668 	1.08192e-23
0.3675 	8.7348e-24
0.3682 	6.65038e-24
0.3689 	4.56595e-24
0.3696 	2.48152e-24
0.3703 	1.21768e-24
0.371 	1.04775e-24
0.3717 	8.76594e-25
0.3724 	7.04756e-25
0.3731 	5.32919e-25
0.3738 	3.61081e-25
0.3745 	1.89243e-25
0.3752 	6.39427e-26
0.3759 	5.49577e-26
0.3766 	4.59157e-26
0.3773 	3.68168e-26
0.378 	2.77178e-26
0.3787 	1.86189e-26
0.3794 	9.52e-27
0.3801 	1.68767e-27
0.3808 	1.45171e-27
0.3815 	1.21454e-27
0.3822 	9.752e-28
0.3829 	7.35862e-28
0.3836 	4.96524e-28
0.3843 	2.57186e-28
0.385 	1.78605e-29
0.3857 	1.5397e-29
0.3864 	1.29243e-29
0.3871 	1.04181e-29
0.3878 	7.91193e-30
0.3885 	5.40574e-30
0.3892 	2.89956e-30
0.3899 	3.93367e-31
0.3906 	3.12873e-32
0.3913 	2.63952e-32
0.392 	2.14028e-32
0.3927 	1.64104e-32
0.3934 	1.14179e-32
0.3941 	6.42551e-33
0.3948 	1.43309e-33
0.3955 	6.26945e-36
0.3962 	5.31674e-36
0.3969 	4.33899e-36
0.3976 	3.35931e-36
0.3983 	2.37964e-36
0.399 	1.39996e-36
0.3997 	4.20284e-37
0.4004 	4.39097e-40
0.4011 	3.74203e-40
0.4018 	3.07561e-40
0.4025 	2.40444e-40
0.4032 	1.73326e-40
0.4039 	1.06209e-40
0.4046 	3.9091e-41
0.4053 	6.99257e-43
0.406 	5.9995e-43
0.4067 	4.97067e-43
0.4074 	3.92196e-43
0.4081 	2.87326e-43
0.4088 	1.82456e-43
0.4095 	7.75852e-44
0.4102 	2.58123e-45
0.4109 	2.22311e-45
0.4116 	1.85358e-45
0.4123 	1.47262e-45
0.413 	1.09167e-45
0.4137 	7.10715e-46
0.4144 	3.29761e-46
0.4151 	3.18841e-48
0.4158 	2.75557e-48
0.4165 	2.31219e-48
0.4172 	1.84987e-48
0.4179 	1.38755e-48
0.4186 	9.25228e-49
0.4193 	4.62906e-49
0.42 	6.10541e-52
0.4207 	5.29336e-52
0.4214 	4.46915e-52
0.4221 	3.60024e-52
0.4228 	2.73132e-52
0.4235 	1.86241e-52
0.4242 	9.93493e-53
0.4249 	1.24578e-53
0.4256 	4.39904e-56
0.4263 	3.73401e-56
0.427 	3.02764e-56
0.4277 	2.32127e-56
0.4284 	1.61491e-56
0.4291 	9.08536e-57
0.4298 	2.02166e-57
0.4305 	3.49641e-60
0.4312 	2.98041e-60
0.4319 	2.43338e-60
0.4326 	1.88397e-60
0.4333 	1.33455e-60
0.434 	7.85135e-61
0.4347 	2.35719e-61
0.4354 	2.64324e-64
0.4361 	2.26059e-64
0.4368 	1.85909e-64
0.4375 	1.45245e-64
0.4382 	1.04582e-64
0.4389 	6.39179e-65
0.4396 	2.32541e-65
0.4403 	1.88986e-68
0.441 	1.62148e-68
0.4417 	1.34256e-68
0.4424 	1.0578e-68
0.4431 	7.73041e-69
0.4438 	4.88279e-69
0.4445 	2.03518e-69
0.4452 	1.27945e-72
0.4459 	1.10116e-72
0.4466 	9.1757e-73
0.4473 	7.28673e-73
0.448 	5.39777e-73
0.4487 	3.50881e-73
0.4494 	1.61984e-73
0.4501 	8.24568e-77
0.4508 	7.11794e-77
0.4515 	5.9668e-77
0.4522 	4.77353e-77
0.4529 	3.58026e-77
0.4536 	2.38698e-77
0.4543 	1.19371e-77
0.455 	5.076e-81
0.4557 	4.39441e-81
0.4564 	3.70454e-81
0.4571 	2.98426e-81
0.4578 	2.26399e-81
0.4585 	1.54371e-81
0.4592 	8.23428e-82
0.4599 	1.03149e-82
0.4606 	2.60371e-85
0.4613 	2.20667e-85
0.462 	1.78921e-85
0.4627 	1.37176e-85
0.4634 	9.54313e-86
0.4641 	5.36862e-86
0.4648 	1.19411e-86
0.4655 	1.48128e-89
0.4662 	1.26086e-89
0.4669 	1.02931e-89
0.4676 	7.969e-90
0.4683 	5.64492e-90
0.469 	3.32084e-90
0.4697 	9.96754e-91
0.4704 	7.90845e-94
0.4711 	6.73174e-94
0.4718 	5.49986e-94
0.4725 	4.25292e-94
0.4732 	3.00599e-94
0.4739 	1.75905e-94
0.4746 	5.12118e-95
0.4753 	-1.94088e-95
0.476 	-1.79496e-95
0.4767 	-1.74325e-95
0.4774 	-1.74388e-95
0.4781 	-1.74452e-95
0.4788 	-1.74515e-95
0.4795 	-1.74578e-95
0.4802 	-1.69382e-95
0.4809 	-1.51033e-95
0.4816 	-1.41857e-95
0.4823 	-1.41855e-95
0.483 	-1.41853e-95
0.4837 	-1.4185e-95
0.4844 	-1.41848e-95
0.4851 	-1.39207e-95
0.4858 	-1.2073e-95
0.4865 	-1.0885e-95
0.4872 	-1.08847e-95
0.4879 	-1.08845e-95
0.4886 	-1.08842e-95
0.4893 	-1.08839e-95
0.49 	-1.0884e-95
0.4907 	-9.22025e-96
0.4914 	-7.91321e-96
0.4921 	-7.91292e-96
0.4928 	-7.91263e-96
0.4935 	-7.91235e-96
0.4942 	-7.91206e-96
0.4949 	-7.91177e-96
0.4956 	-6.73616e-96
0.4963 	-5.46251e-96
0.497 	-5.46226e-96
0.4977 	-5.46201e-96
0.4984 	-5.46175e-96
0.4991 	-5.4615e-96
0.4998 	-5.46124e-96
0.5005 	-4.71166e-96
0.5012 	-3.66226e-96
0.5019 	-3.58711e-96
0.5026 	-3.58691e-96
0.5033 	-3.5867e-96
0.504 	-3.58649e-96
0.5047 	-3.58629e-96
0.5054 	-3.15706e-96
0.5061 	-2.406e-96
0.5068 	-2.24493e-96
0.5075 	-2.24478e-96
0.5082 	-2.24462e-96
0.5089 	-2.24446e-96
0.5096 	-2.24431e-96
0.5103 	-2.0275e-96
0.511 	-1.52176e-96
0.5117 	-1.34107e-96
0.5124 	-1.34096e-96
0.5131 	-1.34085e-96
0.5138 	-1.34074e-96
0.5145 	-1.34063e-96
0.5152 	-1.24863e-96
0.5159 	-9.26823e-97
0.5166 	-7.65885e-97
0.5173 	-7.65812e-97
0.518 	-7.6574e-97
0.5187 	-7.65667e-97
0.5194 	-7.65594e-97
0.5201 	-7.37805e-97
0.5208 	-5.4363e-97
0.5215 	-4.18787e-97
0.5222 	-4.18742e-97
0.5229 	-4.18696e-97
0.5236 	-4.18651e-97
0.5243 	-4.18605e-97
0.525 	-4.18574e-97
0.5257 	-3.07131e-97
0.5264 	-2.19568e-97
0.5271 	-2.19541e-97
0.5278 	-2.19514e-97
0.5285 	-2.19487e-97
0.5292 	-2.1946e-97
0.5299 	-2.19433e-97
0.5306 	-1.67163e-97
0.5313 	-1.10535e-97
0.532 	-1.1052e-97
0.5327 	-1.10505e-97
0.5334 	-1.10489e-97
0.5341 	-1.10474e-97
0.5348 	-1.10459e-97
0.5355 	-8.76745e-98
0.5362 	-5.57798e-98
0.5369 	-5.3494e-98
0.5376 	-5.34858e-98
0.5383 	-5.34776e-98
0.539 	-5.34694e-98
0.5397 	-5.34612e-98
0.5404 	-4.43298e-98
0.5411 	-2.83541e-98
0.5418 	-2.49275e-98
0.5425 	-2.49233e-98
0.5432 	-2.49191e-98
0.5439 	-2.49149e-98
0.5446 	-2.49107e-98
0.5453 	-2.16183e-98
0.546 	-1.39406e-98
0.5467 	-1.11972e-98
0.5474 	-1.11952e-98
0.5481 	-1.11931e-98
0.5488 	-1.1191e-98
0.5495 	-1.1189e-98
0.5502 	-1.01745e-98
0.5509 	-6.62809e-99
0.5516 	-4.85442e-99
0.5523 	-4.85344e-99
0.553 	-4.85247e-99
0.5537 	-4.85149e-99
0.5544 	-4.85052e-99
0.5551 	-4.62451e-99
0.5558 	-3.04755e-99
0.5565 	-2.03363e-99
0.5572 	-2.03319e-99
0.5579 	-2.03275e-99
0.5586 	-2.03231e-99
0.5593 	-2.03187e-99
0.56 	-2.0315e-99
0.5607 	-1.3554e-99
0.5614 	-8.24164e-100
0.5621 	-8.23972e-100
0.5628 	-8.2378e-100
0.5635 	-8.23588e-100
0.5642 	-8.23396e-100
0.5649 	-8.23204e-100
0.5656 	-5.83333e-100
0.5663 	-3.23477e-100
0.567 	-3.23397e-100
0.5677 	-3.23316e-100
0.5684 	-3.23236e-100
0.5691 	-3.23155e-100
0.5698 	-3.23075e-100
0.5705 	-2.43071e-100
0.5712 	-1.31088e-100
0.5719 	-1.23059e-100
0.5726 	-1.23026e-100
0.5733 	-1.22994e-100
0.574 	-1.22961e-100
0.5747 	-1.22928e-100
0.5754 	-9.81296e-101
0.5761 	-5.47511e-101
0.5768 	-4.54457e-101
0.5775 	-4.54329e-101
0.5782 	-4.54202e-101
0.5789 	-4.54075e-101
0.5796 	-4.53947e-101
0.5803 	-3.84091e-101
0.581 	-2.21238e-101
0.5817 	-1.63045e-101
0.5824 	-1.62997e-101
0.5831 	-1.62949e-101
0.5838 	-1.62901e-101
0.5845 	-1.62853e-101
0.5852 	-1.45873e-101
0.5859 	-8.65518e-102
0.5866 	-5.68823e-102
0.5873 	-5.68647e-102
0.588 	-5.6847e-102
0.5887 	-5.68294e-102
0.5894 	-5.68117e-102
0.5901 	-5.37995e-102
0.5908 	-3.28104e-102
0.5915 	-1.93152e-102
0.5922 	-1.93089e-102
0.5929 	-1.93026e-102
0.5936 	-1.92964e-102
0.5943 	-1.92901e-102
0.595 	-1.92845e-102
0.5957 	-1.20634e-102
0.5964 	-6.38929e-103
0.5971 	-6.38713e-103
0.5978 	-6.38497e-103
0.5985 	-6.38281e-103
0.5992 	-6.38065e-103
0.5999 	-6.37849e-103
0.6006 	-4.3059e-103
0.6013 	-2.0607e-103
0.602 	-2.05997e-103
0.6027 	-2.05925e-103
0.6034 	-2.05853e-103
0.6041 	-2.0578e-103
0.6048 	-2.05708e-103
0.6055 	-1.49356e-103
0.6062 	-7.0486e-104
0.6069 	-6.48305e-104
0.6076 	-6.48069e-104
0.6083 	-6.47833e-104
0.609 	-6.47597e-104
0.6097 	-6.47361e-104
0.6104 	-5.03927e-104
0.6111 	-2.53064e-104
0.6118 	-1.99249e-104
0.6125 	-1.99175e-104
0.6132 	-1.991e-104
0.6139 	-1.99025e-104
0.6146 	-1.9895e-104
0.6153 	-1.6554e-104
0.616 	-8.76729e-105
0.6167 	-5.98482e-105
0.6174 	-5.98251e-105
0.6181 	-5.98019e-105
0.6188 	-5.97787e-105
0.6195 	-5.97556e-105
0.6202 	-5.29957e-105
0.6209 	-2.93889e-105
0.6216 	-1.7582e-105
0.6223 	-1.7575e-105
0.623 	-1.7568e-105
0.6237 	-1.7561e-105
0.6244 	-1.7554e-105
0.6251 	-1.65491e-105
0.6258 	-9.55336e-106
0.6265 	-5.05538e-106
0.6272 	-5.05332e-106
0.6279 	-5.05126e-106
0.6286 	-5.0492e-106
0.6293 	-5.04713e-106
0.63 	-5.04526e-106
0.6307 	-3.0172e-106
0.6314 	-1.42364e-106
0.6321 	-1.42305e-106
0.6328 	-1.42245e-106
0.6335 	-1.42186e-106
0.6342 	-1.42126e-106
0.6349 	-1.42067e-106
0.6356 	-9.27326e-107
0.6363 	-3.92907e-107
0.637 	-3.9274e-107
0.6377 	-3.92573e-107
0.6384 	-3.92405e-107
0.6391 	-3.92238e-107
0.6398 	-3.92071e-107
0.6405 	-2.77755e-107
0.6412 	-1.17764e-107
0.6419 	-1.06293e-107
0.6426 	-1.06247e-107
0.6433 	-1.06201e-107
0.644 	-1.06155e-107
0.6447 	-1.06109e-107
0.6454 	-8.11783e-108
0.6461 	-3.75798e-108
0.6468 	-2.82275e-108
0.6475 	-2.8215e-108
0.6482 	-2.82026e-108
0.6489 	-2.81901e-108
0.6496 	-2.81776e-108
0.6503 	-2.31769e-108
0.651 	-1.15233e-108
0.6517 	-7.35922e-109
0.6524 	-7.35591e-109
0.6531 	-7.35261e-109
0.6538 	-7.3493e-109
0.6545 	-7.34599e-109
0.6552 	-6.4704e-109
0.6559 	-3.41335e-109
0.6566 	-1.88439e-109
0.6573 	-1.88353e-109
0.658 	-1.88267e-109
0.6587 	-1.88181e-109
0.6594 	-1.88095e-109
0.6601 	-1.76778e-109
0.6608 	-9.80342e-110
0.6615 	-4.74054e-110
0.6622 	-4.73835e-110
0.6629 	-4.73615e-110
0.6636 	-4.73395e-110
0.6643 	-4.73175e-110
0.665 	-4.72973e-110
0.6657 	-2.73721e-110
0.6664 	-1.17157e-110
0.6671 	-1.17102e-110
0.6678 	-1.17047e-110
0.6685 	-1.16992e-110
0.6692 	-1.16936e-110
0.6699 	-1.16881e-110
0.6706 	-7.44068e-111
0.6713 	-2.83972e-111
0.672 	-2.83835e-111
0.6727 	-2.83698e-111
0.6734 	-2.83561e-111
0.6741 	-2.83424e-111
0.6748 	-2.83287e-111
0.6755 	-1.96763e-111
0.6762 	-7.56729e-112
0.6769 	-6.69926e-112
0.6776 	-6.69592e-112
0.6783 	-6.69259e-112
0.679 	-6.68925e-112
0.6797 	-6.68591e-112
0.6804 	-5.02738e-112
0.6811 	-2.1271e-112
0.6818 	-1.50498e-112
0.6825 	-1.50419e-112
0.6832 	-1.50339e-112
0.6839 	-1.50259e-112
0.6846 	-1.5018e-112
0.6853 	-1.21389e-112
0.686 	-5.43082e-113
0.6867 	-3.03388e-113
0.6874 	-3.03204e-113
0.6881 	-3.03021e-113
0.6888 	-3.02838e-113
0.6895 	-3.02654e-113
0.6902 	-2.61826e-113
0.6909 	-1.19352e-113
0.6916 	-4.80961e-114
0.6923 	-4.80573e-114
0.693 	-4.80186e-114
0.6937 	-4.79799e-114
0.6944 	-4.79411e-114
0.6951 	-4.408e-114
0.6958 	-1.72722e-114
0.6965 	-3.63296e-117
0.6972 	-2.98617e-117
0.6979 	-2.33937e-117
0.6986 	-1.69257e-117
0.6993 	-1.04577e-117
0.7 	-3.99027e-118
