0 	1
0.0007 	1
0.0014 	1
0.0021 	1
0.0028 	1
0.0035 	1
0.0042 	1
0.0049 	1
0.0056 	1
0.0063 	1
0.007 	1
0.0077 	1
0.0084 	1
0.0091 	1
0.0098 	1
0.0105 	1
0.0112 	1
0.0119 	1
0.0126 	1
0.0133 	1
0.014 	1
0.0147 	1
0.0154 	1
0.0161 	1
0.0168 	1
0.0175 	1
0.0182 	1
0.0189 	1
0.0196 	1
0.0203 	1
0.021 	1
0.0217 	1
0.0224 	1
0.0231 	1
0.0238 	1
0.0245 	1
0.0252 	1
0.0259 	1
0.0266 	1
0.0273 	1
0.028 	1
0.0287 	1
0.0294 	1
0.0301 	1
0.0308 	1
0.0315 	1
0.0322 	1
0.0329 	1
0.0336 	1
0.0343 	1
0.035 	1
0.0357 	1
0.0364 	1
0.0371 	1
0.0378 	1
0.0385 	1
0.0392 	1
0.0399 	1
0.0406 	1
0.0413 	1
0.042 	1
0.0427 	1
0.0434 	1
0.0441 	1
0.0448 	1
0.0455 	1
0.0462 	1
0.0469 	1
0.0476 	1
0.0483 	1
0.049 	1
0.0497 	1
0.0504 	1
0.0511 	1
0.0518 	1
0.0525 	1
0.0532 	1
0.0539 	1
0.0546 	1
0.0553 	1
0.056 	1
0.0567 	1
0.0574 	1
0.0581 	1
0.0588 	1
0.0595 	1
0.0602 	1
0.0609 	1
0.0616 	1
0.0623 	1
0.063 	1
0.0637 	1
0.0644 	1
0.0651 	1
0.0658 	1
0.0665 	1
0.0672 	1
0.0679 	1
0.0686 	1
0.0693 	1
0.07 	1
0.0707 	1
0.0714 	1
0.0721 	1
0.0728 	1
0.0735 	1
0.0742 	1
0.0749 	1
0.0756 	1
0.0763 	1
0.077 	1
0.0777 	1
0.0784 	1
0.0791 	1
0.0798 	1
0.0805 	1
0.0812 	1
0.0819 	1
0.0826 	1
0.0833 	1
0.084 	1
0.0847 	1
0.0854 	1
0.0861 	1
0.0868 	1
0.0875 	1
0.0882 	1
0.0889 	1
0.0896 	1
0.0903 	1
0.091 	1
0.0917 	1
0.0924 	1
0.0931 	1
0.0938 	1
0.0945 	1
0.0952 	1
0.0959 	1
0.0966 	1
0.0973 	1
0.098 	1
0.0987 	1
0.0994 	1
0.1001 	1
0.1008 	1
0.1015 	1
0.1022 	1
0.1029 	1
0.1036 	1
0.1043 	1
0.105 	1
0.1057 	1
0.1064 	1
0.1071 	1
0.1078 	1
0.1085 	1
0.1092 	1
0.1099 	1
0.1106 	1
0.1113 	1
0.112 	1
0.1127 	1
0.1134 	1
0.1141 	1
0.1148 	1
0.1155 	1
0.1162 	1
0.1169 	1
0.1176 	1
0.1183 	1
0.119 	1
0.1197 	1
0.1204 	1
0.1211 	1
0.1218 	1
0.1225 	1
0.1232 	1
0.1239 	1
0.1246 	1
0.1253 	1
0.126 	1
0.1267 	1
0.1274 	1
0.1281 	1
0.1288 	1
0.1295 	1
0.1302 	1
0.1309 	1
0.1316 	1
0.1323 	1
0.133 	1
0.1337 	1
0.1344 	1
0.1351 	1
0.1358 	1
0.1365 	1
0.1372 	1
0.1379 	1
0.1386 	1
0.1393 	1
0.14 	1
0.1407 	1
0.1414 	1
0.1421 	1
0.1428 	1
0.1435 	1
0.1442 	1
0.1449 	1
0.1456 	1
0.1463 	1
0.147 	1
0.1477 	1
0.1484 	1
0.1491 	1
0.1498 	1
0.1505 	1
0.1512 	1
0.1519 	1
0.1526 	1
0.1533 	1
0.154 	1
0.1547 	1
0.1554 	1
0.1561 	1
0.1568 	1
0.1575 	1
0.1582 	1
0.1589 	1
0.1596 	1
0.1603 	1
0.161 	1
0.1617 	1
0.1624 	1
0.1631 	1
0.1638 	1
0.1645 	1
0.1652 	1
0.1659 	1
0.1666 	1
0.1673 	1
0.168 	1
0.1687 	1
0.1694 	1
0.1701 	1
0.1708 	1
0.1715 	1
0.1722 	1
0.1729 	1
0.1736 	1
0.1743 	1
0.175 	1
0.1757 	1
0.1764 	1
0.1771 	1
0.1778 	1
0.1785 	1
0.1792 	1
0.1799 	1
0.1806 	1
0.1813 	1
0.182 	1
0.1827 	1
0.1834 	1
0.1841 	1
0.1848 	1
0.1855 	1
0.1862 	1
0.1869 	1
0.1876 	1
0.1883 	1
0.189 	1
0.1897 	1
0.1904 	1
0.1911 	1
0.1918 	1
0.1925 	1
0.1932 	1
0.1939 	1
0.1946 	1
0.1953 	1
0.196 	1
0.1967 	1
0.1974 	1
0.1981 	1
0.1988 	1
0.1995 	1
0.2002 	1
0.2009 	1
0.2016 	1
0.2023 	1
0.203 	1
0.2037 	1
0.2044 	1
0.2051 	1
0.2058 	1
0.2065 	1
0.2072 	1
0.2079 	1
0.2086 	1
0.2093 	1
0.21 	1
0.2107 	1
0.2114 	1
0.2121 	1
0.2128 	1
0.2135 	1
0.2142 	1
0.2149 	1
0.2156 	1
0.2163 	1
0.217 	1
0.2177 	1
0.2184 	1
0.2191 	1
0.2198 	1
0.2205 	1
0.2212 	1
0.2219 	1
0.2226 	1
0.2233 	1
0.224 	1
0.2247 	1
0.2254 	1
0.2261 	1
0.2268 	1
0.2275 	1
0.2282 	1
0.2289 	1
0.2296 	1
0.2303 	1
0.231 	1
0.2317 	1
0.2324 	1
0.2331 	1
0.2338 	1
0.2345 	1
0.2352 	1
0.2359 	1
0.2366 	1
0.2373 	1
0.238 	1
0.2387 	1
0.2394 	1
0.2401 	1
0.2408 	1
0.2415 	1
0.2422 	1
0.2429 	1
0.2436 	1
0.2443 	1
0.245 	1
0.2457 	0.930262
0.2464 	0.860524
0.2471 	0.790783
0.2478 	0.721042
0.2485 	0.651301
0.2492 	0.58156
0.2499 	0.511819
0.2506 	0.441855
0.2513 	0.371855
0.252 	0.301855
0.2527 	0.231855
0.2534 	0.161855
0.2541 	0.0918555
0.2548 	0.0218555
0.2555 	0.00166885
0.2562 	0.00140689
0.2569 	0.00114756
0.2576 	0.000888437
0.2583 	0.000629311
0.259 	0.000370186
0.2597 	0.00011106
0.2604 	6.9606e-09
0.2611 	5.80518e-09
0.2618 	4.74247e-09
0.2625 	3.70506e-09
0.2632 	2.66764e-09
0.2639 	1.63022e-09
0.2646 	5.92806e-10
0.2653 	2.62597e-15
0.266 	2.12562e-15
0.2667 	1.71329e-15
0.2674 	1.34987e-15
0.2681 	9.86441e-16
0.2688 	6.23015e-16
0.2695 	2.59588e-16
0.2702 	7.6395e-22
0.2709 	5.85907e-22
0.2716 	4.50509e-22
0.2723 	3.57757e-22
0.273 	2.65005e-22
0.2737 	1.72253e-22
0.2744 	7.95012e-23
0.2751 	1.98032e-28
0.2758 	1.42711e-28
0.2765 	1.00004e-28
0.2772 	8.00028e-29
0.2779 	6.00021e-29
0.2786 	4.00014e-29
0.2793 	2.00006e-29
0.28 	5.0043e-35
0.2807 	3.48104e-35
0.2814 	2.19283e-35
0.2821 	1.76645e-35
0.2828 	1.34006e-35
0.2835 	9.13679e-36
0.2842 	4.87295e-36
0.2849 	6.09103e-37
0.2856 	8.88603e-42
0.2863 	5.35323e-42
0.287 	4.34046e-42
0.2877 	3.32768e-42
0.2884 	2.31491e-42
0.2891 	1.30213e-42
0.2898 	2.8936e-43
0.2905 	2.34173e-48
0.2912 	1.52529e-48
0.2919 	1.2127e-48
0.2926 	9.38864e-49
0.2933 	6.65029e-49
0.294 	3.91193e-49
0.2947 	1.17357e-49
0.2954 	6.24669e-55
0.2961 	4.60729e-55
0.2968 	3.63178e-55
0.2975 	2.83733e-55
0.2982 	2.04287e-55
0.2989 	1.24842e-55
0.2996 	4.53969e-56
0.3003 	1.66779e-61
0.301 	1.35349e-61
0.3017 	1.09229e-61
0.3024 	8.60593e-62
0.3031 	6.28895e-62
0.3038 	3.97196e-62
0.3045 	1.65498e-62
0.3052 	4.39404e-68
0.3059 	3.78927e-68
0.3066 	3.16144e-68
0.3073 	2.51056e-68
0.308 	1.85967e-68
0.3087 	1.20878e-68
0.3094 	5.57899e-69
0.3101 	1.11874e-74
0.3108 	9.97949e-75
0.3115 	8.58947e-75
0.3122 	6.87157e-75
0.3129 	5.15368e-75
0.3136 	3.43578e-75
0.3143 	1.71789e-75
0.315 	2.69285e-81
0.3157 	2.44405e-81
0.3164 	2.15863e-81
0.3171 	1.73889e-81
0.3178 	1.31916e-81
0.3185 	8.99427e-82
0.3192 	4.79693e-82
0.3199 	5.99596e-83
0.3206 	5.51288e-88
0.3213 	4.97267e-88
0.322 	4.03189e-88
0.3227 	3.09111e-88
0.3234 	2.15034e-88
0.3241 	1.20956e-88
0.3248 	2.68788e-89
0.3255 	1.13726e-94
0.3262 	1.03755e-94
0.3269 	8.51822e-95
0.3276 	6.59475e-95
0.3283 	4.67128e-95
0.329 	2.74781e-95
0.3297 	8.24334e-96
0.3304 	2.13591e-101
0.3311 	1.95425e-101
0.3318 	1.63441e-101
0.3325 	1.27688e-101
0.3332 	9.19353e-102
0.3339 	5.61826e-102
0.3346 	2.04299e-102
0.3353 	3.64306e-108
0.336 	3.33935e-108
0.3367 	2.84318e-108
0.3374 	2.24008e-108
0.3381 	1.63698e-108
0.3388 	1.03388e-108
0.3395 	4.30781e-109
0.3402 	5.63787e-115
0.3409 	5.17499e-115
0.3416 	4.48216e-115
0.3423 	3.55936e-115
0.343 	2.63656e-115
0.3437 	1.71376e-115
0.3444 	7.90964e-116
0.3451 	7.91017e-122
0.3458 	7.26924e-122
0.3465 	6.40006e-122
0.3472 	5.12005e-122
0.3479 	3.84004e-122
0.3486 	2.56002e-122
0.3493 	1.28001e-122
0.35 	1.00591e-128
0.3507 	9.25389e-129
0.3514 	8.2764e-129
0.3521 	6.66709e-129
0.3528 	5.05779e-129
0.3535 	3.44849e-129
0.3542 	1.83919e-129
0.3549 	2.2989e-130
0.3556 	1.0683e-135
0.3563 	9.69966e-136
0.357 	7.86459e-136
0.3577 	6.02952e-136
0.3584 	4.19444e-136
0.3591 	2.35937e-136
0.3598 	5.24295e-137
0.3605 	1.11953e-142
0.3612 	1.02453e-142
0.3619 	8.41333e-143
0.3626 	6.51356e-143
0.3633 	4.61379e-143
0.364 	2.71402e-143
0.3647 	8.1425e-144
0.3654 	7.25347e-148
0.3661 	6.64423e-148
0.3668 	5.55905e-148
0.3675 	4.34406e-148
0.3682 	3.12907e-148
0.3689 	1.91408e-148
0.3696 	6.99092e-149
0.3703 	4.65575e-151
0.371 	4.26991e-151
0.3717 	3.63645e-151
0.3724 	2.86542e-151
0.3731 	2.0944e-151
0.3738 	1.32337e-151
0.3745 	5.52342e-152
0.3752 	1.57693e-154
0.3759 	1.44779e-154
0.3766 	1.25415e-154
0.3773 	9.96023e-155
0.378 	7.37892e-155
0.3787 	4.79761e-155
0.3794 	2.2163e-155
0.3801 	3.7274e-158
0.3808 	3.42568e-158
0.3815 	3.01632e-158
0.3822 	2.41319e-158
0.3829 	1.81007e-158
0.3836 	1.20694e-158
0.3843 	6.03815e-159
0.385 	6.94718e-162
0.3857 	6.39126e-162
0.3864 	5.71634e-162
0.3871 	4.60504e-162
0.3878 	3.49374e-162
0.3885 	2.38244e-162
0.3892 	1.27114e-162
0.3899 	1.59845e-163
0.3906 	1.0205e-165
0.3913 	9.26576e-166
0.392 	7.51307e-166
0.3927 	5.76039e-166
0.3934 	4.00771e-166
0.3941 	2.25503e-166
0.3948 	5.02344e-167
0.3955 	1.49962e-169
0.3962 	1.37236e-169
0.3969 	1.12701e-169
0.3976 	8.72577e-170
0.3983 	6.18141e-170
0.399 	3.63704e-170
0.3997 	1.09268e-170
0.4004 	2.15661e-173
0.4011 	1.9758e-173
0.4018 	1.65301e-173
0.4025 	1.29148e-173
0.4032 	9.29956e-174
0.4039 	5.68431e-174
0.4046 	2.06906e-174
0.4053 	3.12134e-177
0.406 	2.86277e-177
0.4067 	2.43803e-177
0.4074 	1.92097e-177
0.4081 	1.40391e-177
0.4088 	8.86846e-178
0.4095 	3.69785e-178
0.4102 	4.47951e-181
0.4109 	4.11279e-181
0.4116 	3.56274e-181
0.4123 	2.82936e-181
0.413 	2.09598e-181
0.4137 	1.36261e-181
0.4144 	6.29227e-182
0.4151 	6.15114e-185
0.4158 	5.65341e-185
0.4165 	4.97792e-185
0.4172 	3.98249e-185
0.4179 	2.98706e-185
0.4186 	1.99163e-185
0.4193 	9.96206e-186
0.42 	7.83769e-189
0.4207 	7.21072e-189
0.4214 	6.44942e-189
0.4221 	5.19554e-189
0.4228 	3.94166e-189
0.4235 	2.68778e-189
0.4242 	1.4339e-189
0.4249 	1.80017e-190
0.4256 	8.38543e-193
0.4263 	7.61384e-193
0.427 	6.17356e-193
0.4277 	4.73328e-193
0.4284 	3.293e-193
0.4291 	1.85272e-193
0.4298 	4.12435e-194
0.4305 	8.8281e-197
0.4312 	8.07911e-197
0.4319 	6.63466e-197
0.4326 	5.1367e-197
0.4333 	3.63875e-197
0.434 	2.1408e-197
0.4347 	6.42849e-198
0.4354 	8.40582e-201
0.4361 	7.70119e-201
0.4368 	6.44295e-201
0.4375 	5.03371e-201
0.4382 	3.62448e-201
0.4389 	2.21525e-201
0.4396 	8.06017e-202
0.4403 	7.25481e-205
0.441 	6.65386e-205
0.4417 	5.6666e-205
0.4424 	4.46472e-205
0.4431 	3.26283e-205
0.4438 	2.06095e-205
0.4445 	8.59063e-206
0.4452 	5.6973e-209
0.4459 	5.23088e-209
0.4466 	4.53126e-209
0.4473 	3.59844e-209
0.448 	2.66562e-209
0.4487 	1.73279e-209
0.4494 	7.9997e-210
0.4501 	4.09014e-213
0.4508 	3.75917e-213
0.4515 	3.30999e-213
0.4522 	2.64805e-213
0.4529 	1.9861e-213
0.4536 	1.32416e-213
0.4543 	6.6221e-214
0.455 	2.69823e-217
0.4557 	2.48238e-217
0.4564 	2.22028e-217
0.4571 	1.78859e-217
0.4578 	1.3569e-217
0.4585 	9.25211e-218
0.4592 	4.9352e-218
0.4599 	6.18296e-219
0.4606 	1.51457e-221
0.4613 	1.3752e-221
0.462 	1.11504e-221
0.4627 	8.54888e-222
0.4634 	5.94732e-222
0.4641 	3.34576e-222
0.4648 	7.44195e-223
0.4655 	8.58675e-226
0.4662 	7.85821e-226
0.4669 	6.45319e-226
0.4676 	4.99612e-226
0.4683 	3.53905e-226
0.469 	2.08199e-226
0.4697 	6.24923e-227
0.4704 	4.54981e-230
0.4711 	4.16841e-230
0.4718 	3.48733e-230
0.4725 	2.72453e-230
0.4732 	1.96172e-230
0.4739 	1.19892e-230
0.4746 	4.36117e-231
0.4753 	2.26585e-234
0.476 	2.07816e-234
0.4767 	1.7698e-234
0.4774 	1.39441e-234
0.4781 	1.01902e-234
0.4788 	6.43632e-235
0.4795 	2.68242e-235
0.4802 	1.06613e-238
0.4809 	9.78846e-239
0.4816 	8.47924e-239
0.4823 	6.73361e-239
0.483 	4.98798e-239
0.4837 	3.24235e-239
0.4844 	1.49672e-239
0.4851 	4.76064e-243
0.4858 	4.3754e-243
0.4865 	3.85257e-243
0.4872 	3.0821e-243
0.4879 	2.31162e-243
0.4886 	1.54115e-243
0.4893 	7.70673e-244
0.49 	2.02431e-247
0.4907 	1.86237e-247
0.4914 	1.66573e-247
0.4921 	1.34185e-247
0.4928 	1.01798e-247
0.4935 	6.941e-248
0.4942 	3.70223e-248
0.4949 	4.6347e-249
0.4956 	7.56476e-252
0.4963 	6.86865e-252
0.497 	5.56923e-252
0.4977 	4.26981e-252
0.4984 	2.9704e-252
0.4991 	1.67098e-252
0.4998 	3.71564e-253
0.5005 	2.93498e-256
0.5012 	2.68596e-256
0.5019 	2.20571e-256
0.5026 	1.70767e-256
0.5033 	1.20963e-256
0.504 	7.11594e-257
0.5047 	2.13556e-257
0.5054 	1.08752e-260
0.5061 	9.96355e-261
0.5068 	8.33558e-261
0.5075 	6.51226e-261
0.5082 	4.68893e-261
0.5089 	2.86561e-261
0.5096 	1.04228e-261
0.5103 	3.8452e-265
0.511 	3.52667e-265
0.5117 	3.00338e-265
0.5124 	2.36633e-265
0.5131 	1.72927e-265
0.5138 	1.09222e-265
0.5145 	4.55166e-266
0.5152 	1.29572e-269
0.5159 	1.18964e-269
0.5166 	1.03052e-269
0.5173 	8.18364e-270
0.518 	6.06206e-270
0.5187 	3.94048e-270
0.5194 	1.8189e-270
0.5201 	4.15566e-274
0.5208 	3.81937e-274
0.5215 	3.36298e-274
0.5222 	2.69041e-274
0.5229 	2.01784e-274
0.5236 	1.34527e-274
0.5243 	6.72694e-275
0.525 	1.26704e-278
0.5257 	1.16567e-278
0.5264 	1.04259e-278
0.5271 	8.39874e-279
0.5278 	6.37154e-279
0.5285 	4.34435e-279
0.5292 	2.31715e-279
0.5299 	2.89948e-280
0.5306 	3.37877e-283
0.5313 	3.06785e-283
0.532 	2.48747e-283
0.5327 	1.90708e-283
0.5334 	1.32669e-283
0.5341 	7.46306e-284
0.5348 	1.65919e-284
0.5355 	9.29498e-288
0.5362 	8.50634e-288
0.5369 	6.98538e-288
0.5376 	5.40809e-288
0.5383 	3.8308e-288
0.539 	2.25351e-288
0.5397 	6.76224e-289
0.5404 	2.42591e-292
0.5411 	2.22254e-292
0.5418 	1.85939e-292
0.5425 	1.45266e-292
0.5432 	1.04593e-292
0.5439 	6.39205e-293
0.5446 	2.32476e-293
0.5453 	6.00578e-297
0.546 	5.50827e-297
0.5467 	4.69093e-297
0.5474 	3.69592e-297
0.5481 	2.7009e-297
0.5488 	1.70588e-297
0.5495 	7.10864e-298
0.5502 	1.41044e-301
0.5509 	1.29496e-301
0.5516 	1.12176e-301
0.5523 	8.90812e-302
0.553 	6.59869e-302
0.5537 	4.28925e-302
0.5544 	1.97982e-302
0.5551 	3.14277e-306
0.5558 	2.88845e-306
0.5565 	2.5433e-306
0.5572 	2.03465e-306
0.5579 	1.526e-306
0.5586 	1.01736e-306
0.5593 	5.0871e-307
0.56 	6.64644e-311
0.5607 	6.11473e-311
0.5614 	5.46909e-311
0.5621 	4.40568e-311
0.5628 	3.34227e-311
0.5635 	2.27886e-311
0.5642 	1.21545e-311
0.5649 	1.5204e-312
0.5656 	1.22743e-315
0.5663 	1.11447e-315
0.567 	9.03628e-316
0.5677 	6.92782e-316
0.5684 	4.81936e-316
0.5691 	2.7109e-316
0.5698 	6.02439e-317
0.5705 	3.50787e-321
0.5712 	3.20649e-321
0.5719 	2.63337e-321
0.5726 	2.04049e-321
0.5733 	1.44267e-321
0.574 	8.49793e-322
0.5747 	2.56914e-322
0.5754 	0
0.5761 	0
0.5768 	0
0.5775 	0
0.5782 	0
0.5789 	0
0.5796 	0
0.5803 	0
0.581 	0
0.5817 	0
0.5824 	0
0.5831 	0
0.5838 	0
0.5845 	0
0.5852 	0
0.5859 	0
0.5866 	0
0.5873 	0
0.588 	0
0.5887 	0
0.5894 	0
0.5901 	0
0.5908 	0
0.5915 	0
0.5922 	0
0.5929 	0
0.5936 	0
0.5943 	0
0.595 	0
0.5957 	0
0.5964 	0
0.5971 	0
0.5978 	0
0.5985 	0
0.5992 	0
0.5999 	0
0.6006 	0
0.6013 	0
0.602 	0
0.6027 	0
0.6034 	0
0.6041 	0
0.6048 	0
0.6055 	0
0.6062 	0
0.6069 	0
0.6076 	0
0.6083 	0
0.609 	0
0.6097 	0
0.6104 	0
0.6111 	0
0.6118 	0
0.6125 	0
0.6132 	0
0.6139 	0
0.6146 	0
0.6153 	0
0.616 	0
0.6167 	0
0.6174 	0
0.6181 	0
0.6188 	0
0.6195 	0
0.6202 	0
0.6209 	0
0.6216 	0
0.6223 	0
0.623 	0
0.6237 	0
0.6244 	0
0.6251 	0
0.6258 	0
0.6265 	0
0.6272 	0
0.6279 	0
0.6286 	0
0.6293 	0
0.63 	0
0.6307 	0
0.6314 	0
0.6321 	0
0.6328 	0
0.6335 	0
0.6342 	0
0.6349 	0
0.6356 	0
0.6363 	0
0.637 	0
0.6377 	0
0.6384 	0
0.6391 	0
0.6398 	0
0.6405 	0
0.6412 	0
0.6419 	0
0.6426 	0
0.6433 	0
0.644 	0
0.6447 	0
0.6454 	0
0.6461 	0
0.6468 	0
0.6475 	0
0.6482 	0
0.6489 	0
0.6496 	0
0.6503 	0
0.651 	0
0.6517 	0
0.6524 	0
0.6531 	0
0.6538 	0
0.6545 	0
0.6552 	0
0.6559 	0
0.6566 	0
0.6573 	0
0.658 	0
0.6587 	0
0.6594 	0
0.6601 	0
0.6608 	0
0.6615 	0
0.6622 	0
0.6629 	0
0.6636 	0
0.6643 	0
0.665 	0
0.6657 	0
0.6664 	0
0.6671 	0
0.6678 	0
0.6685 	0
0.6692 	0
0.6699 	0
0.6706 	0
0.6713 	0
0.672 	0
0.6727 	0
0.6734 	0
0.6741 	0
0.6748 	0
0.6755 	0
0.6762 	0
0.6769 	0
0.6776 	0
0.6783 	0
0.679 	0
0.6797 	0
0.6804 	0
0.6811 	0
0.6818 	0
0.6825 	0
0.6832 	0
0.6839 	0
0.6846 	0
0.6853 	0
0.686 	0
0.6867 	0
0.6874 	0
0.6881 	0
0.6888 	0
0.6895 	0
0.6902 	0
0.6909 	0
0.6916 	0
0.6923 	0
0.693 	0
0.6937 	0
0.6944 	0
0.6951 	0
0.6958 	0
0.6965 	0
0.6972 	0
0.6979 	0
0.6986 	0
0.6993 	0
0.7 	0
