0 	1
0.0007 	1
0.0014 	1
0.0021 	1
0.0028 	1
0.0035 	1
0.0042 	1
0.0049 	1
0.0056 	1
0.0063 	1
0.007 	1
0.0077 	1
0.0084 	1
0.0091 	1
0.0098 	1
0.0105 	1
0.0112 	1
0.0119 	1
0.0126 	1
0.0133 	1
0.014 	1
0.0147 	1
0.0154 	1
0.0161 	1
0.0168 	1
0.0175 	1
0.0182 	1
0.0189 	1
0.0196 	1
0.0203 	1
0.021 	1
0.0217 	1
0.0224 	1
0.0231 	1
0.0238 	1
0.0245 	1
0.0252 	1
0.0259 	1
0.0266 	1
0.0273 	1
0.028 	1
0.0287 	1
0.0294 	1
0.0301 	1
0.0308 	1
0.0315 	1
0.0322 	1
0.0329 	1
0.0336 	1
0.0343 	1
0.035 	1
0.0357 	1
0.0364 	1
0.0371 	1
0.0378 	1
0.0385 	1
0.0392 	1
0.0399 	1
0.0406 	1
0.0413 	1
0.042 	1
0.0427 	1
0.0434 	1
0.0441 	1
0.0448 	1
0.0455 	1
0.0462 	1
0.0469 	1
0.0476 	1
0.0483 	1
0.049 	1
0.0497 	1
0.0504 	1
0.0511 	1
0.0518 	1
0.0525 	1
0.0532 	1
0.0539 	1
0.0546 	1
0.0553 	1
0.056 	1
0.0567 	1
0.0574 	1
0.0581 	1
0.0588 	1
0.0595 	1
0.0602 	1
0.0609 	1
0.0616 	1
0.0623 	1
0.063 	1
0.0637 	1
0.0644 	1
0.0651 	1
0.0658 	1
0.0665 	1
0.0672 	1
0.0679 	1
0.0686 	1
0.0693 	1
0.07 	1
0.0707 	1
0.0714 	1
0.0721 	1
0.0728 	1
0.0735 	1
0.0742 	1
0.0749 	1
0.0756 	1
0.0763 	1
0.077 	1
0.0777 	1
0.0784 	1
0.0791 	1
0.0798 	1
0.0805 	1
0.0812 	1
0.0819 	1
0.0826 	1
0.0833 	1
0.084 	1
0.0847 	1
0.0854 	1
0.0861 	1
0.0868 	1
0.0875 	1
0.0882 	1
0.0889 	1
0.0896 	1
0.0903 	1
0.091 	1
0.0917 	1
0.0924 	1
0.0931 	1
0.0938 	1
0.0945 	1
0.0952 	1
0.0959 	1
0.0966 	1
0.0973 	1
0.098 	1
0.0987 	1
0.0994 	1
0.1001 	1
0.1008 	1
0.1015 	1
0.1022 	1
0.1029 	1
0.1036 	1
0.1043 	1
0.105 	1
0.1057 	1
0.1064 	1
0.1071 	1
0.1078 	1
0.1085 	1
0.1092 	1
0.1099 	1
0.1106 	1
0.1113 	1
0.112 	1
0.1127 	1
0.1134 	1
0.1141 	1
0.1148 	1
0.1155 	1
0.1162 	1
0.1169 	1
0.1176 	1
0.1183 	1
0.119 	1
0.1197 	1
0.1204 	1
0.1211 	1
0.1218 	1
0.1225 	1
0.1232 	1
0.1239 	1
0.1246 	1
0.1253 	1
0.126 	1
0.1267 	1
0.1274 	1
0.1281 	1
0.1288 	1
0.1295 	1
0.1302 	1
0.1309 	1
0.1316 	1
0.1323 	1
0.133 	1
0.1337 	1
0.1344 	1
0.1351 	1
0.1358 	1
0.1365 	1
0.1372 	1
0.1379 	1
0.1386 	1
0.1393 	1
0.14 	1
0.1407 	1
0.1414 	1
0.1421 	1
0.1428 	1
0.1435 	1
0.1442 	1
0.1449 	1
0.1456 	1
0.1463 	1
0.147 	1
0.1477 	1
0.1484 	1
0.1491 	1
0.1498 	1
0.1505 	1
0.1512 	1
0.1519 	1
0.1526 	1
0.1533 	1
0.154 	1
0.1547 	1
0.1554 	1
0.1561 	1
0.1568 	1
0.1575 	1
0.1582 	1
0.1589 	1
0.1596 	1
0.1603 	1
0.161 	1
0.1617 	1
0.1624 	1
0.1631 	1
0.1638 	1
0.1645 	1
0.1652 	1
0.1659 	1
0.1666 	1
0.1673 	1
0.168 	1
0.1687 	1
0.1694 	1
0.1701 	1
0.1708 	1
0.1715 	1
0.1722 	1
0.1729 	1
0.1736 	1
0.1743 	1
0.175 	1
0.1757 	1
0.1764 	1
0.1771 	1
0.1778 	1
0.1785 	1
0.1792 	1
0.1799 	1
0.1806 	1
0.1813 	1
0.182 	1
0.1827 	1
0.1834 	1
0.1841 	1
0.1848 	1
0.1855 	1
0.1862 	1
0.1869 	1
0.1876 	1
0.1883 	1
0.189 	1
0.1897 	1
0.1904 	1
0.1911 	1
0.1918 	1
0.1925 	1
0.1932 	1
0.1939 	1
0.1946 	1
0.1953 	1
0.196 	1
0.1967 	1
0.1974 	1
0.1981 	1
0.1988 	1
0.1995 	1
0.2002 	1
0.2009 	1
0.2016 	1
0.2023 	1
0.203 	1
0.2037 	1
0.2044 	1
0.2051 	1
0.2058 	1
0.2065 	1
0.2072 	1
0.2079 	1
0.2086 	1
0.2093 	1
0.21 	1
0.2107 	1
0.2114 	1
0.2121 	1
0.2128 	1
0.2135 	1
0.2142 	1
0.2149 	1
0.2156 	1
0.2163 	1
0.217 	1
0.2177 	1
0.2184 	1
0.2191 	1
0.2198 	1
0.2205 	1
0.2212 	1
0.2219 	1
0.2226 	1
0.2233 	1
0.224 	1
0.2247 	1
0.2254 	1
0.2261 	1
0.2268 	1
0.2275 	1
0.2282 	1
0.2289 	1
0.2296 	1
0.2303 	1
0.231 	1
0.2317 	1
0.2324 	1
0.2331 	1
0.2338 	1
0.2345 	1
0.2352 	1
0.2359 	1
0.2366 	1
0.2373 	1
0.238 	1
0.2387 	1
0.2394 	1
0.2401 	0.999995
0.2408 	0.999956
0.2415 	0.999909
0.2422 	0.999847
0.2429 	0.999785
0.2436 	0.999722
0.2443 	0.99966
0.245 	0.999598
0.2457 	0.929646
0.2464 	0.859697
0.2471 	0.789761
0.2478 	0.719825
0.2485 	0.649889
0.2492 	0.579953
0.2499 	0.510017
0.2506 	0.440059
0.2513 	0.370099
0.252 	0.300161
0.2527 	0.230224
0.2534 	0.160286
0.2541 	0.0903483
0.2548 	0.0204106
0.2555 	0.000394388
0.2562 	0.000346633
0.2569 	0.00028373
0.2576 	0.000219662
0.2583 	0.000155594
0.259 	9.15259e-05
0.2597 	2.74578e-05
0.2604 	5.00896e-11
0.2611 	4.31402e-11
0.2618 	3.55422e-11
0.2625 	2.77673e-11
0.2632 	1.99925e-11
0.2639 	1.22176e-11
0.2646 	4.44277e-12
0.2653 	3.56196e-18
0.266 	2.93167e-18
0.2667 	2.38178e-18
0.2674 	1.87656e-18
0.2681 	1.37133e-18
0.2688 	8.66103e-19
0.2695 	3.60876e-19
0.2702 	2.3237e-25
0.2709 	1.84307e-25
0.2716 	1.45317e-25
0.2723 	1.15399e-25
0.273 	8.54805e-26
0.2737 	5.55623e-26
0.2744 	2.56441e-26
0.2751 	1.51758e-32
0.2758 	1.24369e-32
0.2765 	9.96445e-33
0.2772 	7.97156e-33
0.2779 	5.97867e-33
0.2786 	3.98578e-33
0.2793 	1.99289e-33
0.28 	9.84254e-40
0.2807 	8.56837e-40
0.2814 	7.26454e-40
0.2821 	5.85199e-40
0.2828 	4.43944e-40
0.2835 	3.02689e-40
0.2842 	1.61434e-40
0.2849 	2.01792e-41
0.2856 	6.60244e-47
0.2863 	5.89086e-47
0.287 	4.77637e-47
0.2877 	3.66188e-47
0.2884 	2.5474e-47
0.2891 	1.43291e-47
0.2898 	3.18424e-48
0.2905 	5.78683e-54
0.2912 	5.27823e-54
0.2919 	4.3333e-54
0.2926 	3.35482e-54
0.2933 	2.37633e-54
0.294 	1.39784e-54
0.2947 	4.19352e-55
0.2954 	6.17664e-61
0.2961 	5.65671e-61
0.2968 	4.73199e-61
0.2975 	3.69687e-61
0.2982 	2.66175e-61
0.2989 	1.62662e-61
0.2996 	5.91499e-62
0.3003 	8.21429e-68
0.301 	7.5336e-68
0.3017 	6.41564e-68
0.3024 	5.05475e-68
0.3031 	3.69385e-68
0.3038 	2.33296e-68
0.3045 	9.72067e-69
0.3052 	1.41774e-74
0.3059 	1.30167e-74
0.3066 	1.12756e-74
0.3073 	8.95414e-75
0.308 	6.6327e-75
0.3087 	4.31126e-75
0.3094 	1.98981e-75
0.3101 	2.46568e-81
0.3108 	2.26614e-81
0.3115 	1.99534e-81
0.3122 	1.59628e-81
0.3129 	1.19721e-81
0.3136 	7.98138e-82
0.3143 	3.99069e-82
0.315 	3.96778e-88
0.3157 	3.65035e-88
0.3164 	3.26491e-88
0.3171 	2.63007e-88
0.3178 	1.99522e-88
0.3185 	1.36038e-88
0.3192 	7.25536e-89
0.3199 	9.0692e-90
0.3206 	5.32652e-95
0.3213 	4.83635e-95
0.322 	3.92136e-95
0.3227 	3.00638e-95
0.3234 	2.09139e-95
0.3241 	1.17641e-95
0.3248 	2.61424e-96
0.3255 	6.99663e-102
0.3262 	6.40297e-102
0.3269 	5.25807e-102
0.3276 	4.07076e-102
0.3283 	2.88346e-102
0.329 	1.69615e-102
0.3297 	5.08845e-103
0.3304 	8.2547e-109
0.3311 	7.56269e-109
0.3318 	6.32696e-109
0.3325 	4.94294e-109
0.3332 	3.55891e-109
0.3339 	2.17489e-109
0.3346 	7.90869e-110
0.3353 	8.74171e-116
0.336 	8.01755e-116
0.3367 	6.82785e-116
0.3374 	5.37952e-116
0.3381 	3.93118e-116
0.3388 	2.48285e-116
0.3395 	1.03452e-116
0.3402 	8.31114e-123
0.3409 	7.63069e-123
0.3416 	6.61003e-123
0.3423 	5.24914e-123
0.343 	3.88825e-123
0.3437 	2.52736e-123
0.3444 	1.16647e-123
0.3451 	7.09951e-130
0.3458 	6.52499e-130
0.3465 	5.74527e-130
0.3472 	4.59622e-130
0.3479 	3.44716e-130
0.3486 	2.29811e-130
0.3493 	1.14905e-130
0.35 	5.45532e-137
0.3507 	5.0189e-137
0.3514 	4.48895e-137
0.3521 	3.6161e-137
0.3528 	2.74325e-137
0.3535 	1.8704e-137
0.3542 	9.97544e-138
0.3549 	1.24693e-138
0.3556 	3.47873e-144
0.3563 	3.15863e-144
0.357 	2.56112e-144
0.3577 	1.9636e-144
0.3584 	1.36608e-144
0.3591 	7.68568e-145
0.3598 	1.71053e-145
0.3605 	3.15214e-148
0.3612 	2.88472e-148
0.3619 	2.36899e-148
0.3626 	1.83416e-148
0.3633 	1.29932e-148
0.364 	7.6449e-149
0.3647 	2.29657e-149
0.3654 	4.23626e-152
0.3661 	3.88116e-152
0.3668 	3.24707e-152
0.3675 	2.53688e-152
0.3682 	1.82669e-152
0.3689 	1.1165e-152
0.3696 	4.06316e-153
0.3703 	4.78459e-156
0.371 	4.38827e-156
0.3717 	3.73718e-156
0.3724 	2.94455e-156
0.3731 	2.15192e-156
0.3738 	1.35929e-156
0.3745 	5.66662e-157
0.3752 	4.87865e-160
0.3759 	4.47926e-160
0.3766 	3.88019e-160
0.3773 	3.08143e-160
0.378 	2.28266e-160
0.3787 	1.4839e-160
0.3794 	6.85133e-161
0.3801 	4.73545e-164
0.3808 	4.35227e-164
0.3815 	3.83224e-164
0.3822 	3.06588e-164
0.3829 	2.29953e-164
0.3836 	1.53317e-164
0.3843 	7.66812e-165
0.385 	4.56196e-168
0.3857 	4.19704e-168
0.3864 	3.75392e-168
0.3871 	3.02407e-168
0.3878 	2.29423e-168
0.3885 	1.56439e-168
0.3892 	8.34544e-169
0.3899 	1.04701e-169
0.3906 	4.08238e-172
0.3913 	3.70674e-172
0.392 	3.00554e-172
0.3927 	2.30435e-172
0.3934 	1.60315e-172
0.3941 	9.01954e-173
0.3948 	2.00759e-173
0.3955 	3.94011e-176
0.3962 	3.60583e-176
0.3969 	2.96115e-176
0.3976 	2.29259e-176
0.3983 	1.62403e-176
0.399 	9.55468e-177
0.3997 	2.86908e-177
0.4004 	3.65084e-180
0.4011 	3.34481e-180
0.4018 	2.79832e-180
0.4025 	2.18626e-180
0.4032 	1.5742e-180
0.4039 	9.62137e-181
0.4046 	3.50076e-181
0.4053 	3.15391e-184
0.406 	2.89266e-184
0.4067 	2.46347e-184
0.4074 	1.94097e-184
0.4081 	1.41847e-184
0.4088 	8.95969e-185
0.4095 	3.73469e-185
0.4102 	2.49543e-188
0.4109 	2.29114e-188
0.4116 	1.98471e-188
0.4123 	1.57613e-188
0.413 	1.16755e-188
0.4137 	7.5897e-189
0.4144 	3.50391e-189
0.4151 	1.79393e-192
0.4158 	1.64876e-192
0.4165 	1.45176e-192
0.4172 	1.16143e-192
0.4179 	8.711e-193
0.4186 	5.80773e-193
0.4193 	2.90445e-193
0.42 	1.16947e-196
0.4207 	1.07592e-196
0.4214 	9.6232e-197
0.4221 	7.75216e-197
0.4228 	5.88111e-197
0.4235 	4.01007e-197
0.4242 	2.13902e-197
0.4249 	2.67975e-198
0.4256 	6.37491e-201
0.4263 	5.78829e-201
0.427 	4.69328e-201
0.4277 	3.59827e-201
0.4284 	2.50325e-201
0.4291 	1.40824e-201
0.4298 	3.13225e-202
0.4305 	3.43928e-205
0.4312 	3.14748e-205
0.4319 	2.58472e-205
0.4326 	2.00111e-205
0.4333 	1.41751e-205
0.434 	8.339e-206
0.4347 	2.50294e-206
0.4354 	1.69539e-209
0.4361 	1.55326e-209
0.4368 	1.29948e-209
0.4375 	1.01523e-209
0.4382 	7.3099e-210
0.4389 	4.46747e-210
0.4396 	1.62504e-210
0.4403 	7.66419e-214
0.441 	7.02931e-214
0.4417 	5.9863e-214
0.4424 	4.71655e-214
0.4431 	3.4468e-214
0.4438 	2.17704e-214
0.4445 	9.07291e-215
0.4452 	3.1889e-218
0.4459 	2.92783e-218
0.4466 	2.53622e-218
0.4473 	2.01409e-218
0.448 	1.49195e-218
0.4487 	9.69809e-219
0.4494 	4.47671e-219
0.4501 	1.22552e-222
0.4508 	1.12635e-222
0.4515 	9.91756e-223
0.4522 	7.93413e-223
0.4529 	5.95071e-223
0.4536 	3.96728e-223
0.4543 	1.98386e-223
0.455 	4.36479e-227
0.4557 	4.01562e-227
0.4564 	3.59162e-227
0.4571 	2.89328e-227
0.4578 	2.19494e-227
0.4585 	1.49659e-227
0.4592 	7.98249e-228
0.4599 	9.99054e-229
0.4606 	1.33101e-231
0.4613 	1.20853e-231
0.462 	9.79897e-232
0.4627 	7.51265e-232
0.4634 	5.22632e-232
0.4641 	2.94e-232
0.4648 	6.5367e-233
0.4655 	4.1143e-236
0.4662 	3.76522e-236
0.4669 	3.09199e-236
0.4676 	2.39383e-236
0.4683 	1.69566e-236
0.469 	9.975e-237
0.4697 	2.99337e-237
0.4704 	1.18955e-240
0.4711 	1.08983e-240
0.4718 	9.11757e-241
0.4725 	7.12317e-241
0.4732 	5.12878e-241
0.4739 	3.13438e-241
0.4746 	1.13999e-241
0.4753 	3.22621e-245
0.476 	2.95895e-245
0.4767 	2.51989e-245
0.4774 	1.98539e-245
0.4781 	1.45088e-245
0.4788 	9.16379e-246
0.4795 	3.81873e-246
0.4802 	8.2311e-250
0.4809 	7.55723e-250
0.4816 	6.54642e-250
0.4823 	5.19867e-250
0.483 	3.85091e-250
0.4837 	2.50316e-250
0.4844 	1.15541e-250
0.4851 	1.98108e-254
0.4858 	1.82076e-254
0.4865 	1.60319e-254
0.4872 	1.28256e-254
0.4879 	9.61934e-255
0.4886 	6.41304e-255
0.4893 	3.20675e-255
0.49 	4.51071e-259
0.4907 	4.14986e-259
0.4914 	3.71168e-259
0.4921 	2.98999e-259
0.4928 	2.26829e-259
0.4935 	1.54659e-259
0.4942 	8.24893e-260
0.4949 	1.03195e-260
0.4956 	8.97273e-264
0.4963 	8.14704e-264
0.497 	6.60574e-264
0.4977 	5.06445e-264
0.4984 	3.52315e-264
0.4991 	1.98186e-264
0.4998 	4.40564e-265
0.5005 	1.84565e-268
0.5012 	1.68906e-268
0.5019 	1.38705e-268
0.5026 	1.07385e-268
0.5033 	7.60655e-269
0.504 	4.4746e-269
0.5047 	1.34264e-269
0.5054 	3.62171e-273
0.5061 	3.3181e-273
0.5068 	2.77593e-273
0.5075 	2.16871e-273
0.5082 	1.56149e-273
0.5089 	9.54273e-274
0.5096 	3.47053e-274
0.5103 	6.79787e-278
0.511 	6.23474e-278
0.5117 	5.3096e-278
0.5124 	4.18335e-278
0.5131 	3.0571e-278
0.5138 	1.93084e-278
0.5145 	8.0459e-279
0.5152 	1.2235e-282
0.5159 	1.12333e-282
0.5166 	9.73081e-283
0.5173 	7.72745e-283
0.518 	5.72409e-283
0.5187 	3.72073e-283
0.5194 	1.71738e-283
0.5201 	2.11619e-287
0.5208 	1.94494e-287
0.5215 	1.71253e-287
0.5222 	1.37003e-287
0.5229 	1.02753e-287
0.5236 	6.85032e-288
0.5243 	3.42534e-288
0.525 	3.52366e-292
0.5257 	3.24177e-292
0.5264 	2.89947e-292
0.5271 	2.3357e-292
0.5278 	1.77192e-292
0.5285 	1.20815e-292
0.5292 	6.44371e-293
0.5299 	8.05946e-294
0.5306 	5.20827e-297
0.5313 	4.72899e-297
0.532 	3.83433e-297
0.5327 	2.93967e-297
0.5334 	2.04502e-297
0.5341 	1.15036e-297
0.5348 	2.55701e-298
0.5355 	8.07167e-302
0.5362 	7.38681e-302
0.5369 	6.06601e-302
0.5376 	4.6963e-302
0.5383 	3.32658e-302
0.539 	1.95686e-302
0.5397 	5.87146e-303
0.5404 	1.20693e-306
0.5411 	1.10575e-306
0.5418 	9.25079e-307
0.5425 	7.22722e-307
0.5432 	5.20364e-307
0.5439 	3.18007e-307
0.5446 	1.1565e-307
0.5453 	1.74075e-311
0.546 	1.59654e-311
0.5467 	1.35964e-311
0.5474 	1.07124e-311
0.5481 	7.82834e-312
0.5488 	4.9443e-312
0.5495 	2.06027e-312
0.5502 	2.41513e-316
0.5509 	2.2174e-316
0.5516 	1.92081e-316
0.5523 	1.52535e-316
0.553 	1.1299e-316
0.5537 	7.34439e-317
0.5544 	3.38982e-317
0.5551 	1.83298e-321
0.5558 	1.68476e-321
0.5565 	1.48714e-321
0.5572 	1.1907e-321
0.5579 	8.94259e-322
0.5586 	5.92879e-322
0.5593 	2.96439e-322
0.56 	0
0.5607 	0
0.5614 	0
0.5621 	0
0.5628 	0
0.5635 	0
0.5642 	0
0.5649 	0
0.5656 	0
0.5663 	0
0.567 	0
0.5677 	0
0.5684 	0
0.5691 	0
0.5698 	0
0.5705 	0
0.5712 	0
0.5719 	0
0.5726 	0
0.5733 	0
0.574 	0
0.5747 	0
0.5754 	0
0.5761 	0
0.5768 	0
0.5775 	0
0.5782 	0
0.5789 	0
0.5796 	0
0.5803 	0
0.581 	0
0.5817 	0
0.5824 	0
0.5831 	0
0.5838 	0
0.5845 	0
0.5852 	0
0.5859 	0
0.5866 	0
0.5873 	0
0.588 	0
0.5887 	0
0.5894 	0
0.5901 	0
0.5908 	0
0.5915 	0
0.5922 	0
0.5929 	0
0.5936 	0
0.5943 	0
0.595 	0
0.5957 	0
0.5964 	0
0.5971 	0
0.5978 	0
0.5985 	0
0.5992 	0
0.5999 	0
0.6006 	0
0.6013 	0
0.602 	0
0.6027 	0
0.6034 	0
0.6041 	0
0.6048 	0
0.6055 	0
0.6062 	0
0.6069 	0
0.6076 	0
0.6083 	0
0.609 	0
0.6097 	0
0.6104 	0
0.6111 	0
0.6118 	0
0.6125 	0
0.6132 	0
0.6139 	0
0.6146 	0
0.6153 	0
0.616 	0
0.6167 	0
0.6174 	0
0.6181 	0
0.6188 	0
0.6195 	0
0.6202 	0
0.6209 	0
0.6216 	0
0.6223 	0
0.623 	0
0.6237 	0
0.6244 	0
0.6251 	0
0.6258 	0
0.6265 	0
0.6272 	0
0.6279 	0
0.6286 	0
0.6293 	0
0.63 	0
0.6307 	0
0.6314 	0
0.6321 	0
0.6328 	0
0.6335 	0
0.6342 	0
0.6349 	0
0.6356 	0
0.6363 	0
0.637 	0
0.6377 	0
0.6384 	0
0.6391 	0
0.6398 	0
0.6405 	0
0.6412 	0
0.6419 	0
0.6426 	0
0.6433 	0
0.644 	0
0.6447 	0
0.6454 	0
0.6461 	0
0.6468 	0
0.6475 	0
0.6482 	0
0.6489 	0
0.6496 	0
0.6503 	0
0.651 	0
0.6517 	0
0.6524 	0
0.6531 	0
0.6538 	0
0.6545 	0
0.6552 	0
0.6559 	0
0.6566 	0
0.6573 	0
0.658 	0
0.6587 	0
0.6594 	0
0.6601 	0
0.6608 	0
0.6615 	0
0.6622 	0
0.6629 	0
0.6636 	0
0.6643 	0
0.665 	0
0.6657 	0
0.6664 	0
0.6671 	0
0.6678 	0
0.6685 	0
0.6692 	0
0.6699 	0
0.6706 	0
0.6713 	0
0.672 	0
0.6727 	0
0.6734 	0
0.6741 	0
0.6748 	0
0.6755 	0
0.6762 	0
0.6769 	0
0.6776 	0
0.6783 	0
0.679 	0
0.6797 	0
0.6804 	0
0.6811 	0
0.6818 	0
0.6825 	0
0.6832 	0
0.6839 	0
0.6846 	0
0.6853 	0
0.686 	0
0.6867 	0
0.6874 	0
0.6881 	0
0.6888 	0
0.6895 	0
0.6902 	0
0.6909 	0
0.6916 	0
0.6923 	0
0.693 	0
0.6937 	0
0.6944 	0
0.6951 	0
0.6958 	0
0.6965 	0
0.6972 	0
0.6979 	0
0.6986 	0
0.6993 	0
0.7 	0
