0 	1
0.0007 	1
0.0014 	1
0.0021 	1
0.0028 	1
0.0035 	1
0.0042 	1
0.0049 	1
0.0056 	1
0.0063 	1
0.007 	1
0.0077 	1
0.0084 	1
0.0091 	1
0.0098 	1
0.0105 	1
0.0112 	1
0.0119 	1
0.0126 	1
0.0133 	1
0.014 	1
0.0147 	1
0.0154 	1
0.0161 	1
0.0168 	1
0.0175 	1
0.0182 	1
0.0189 	1
0.0196 	1
0.0203 	1
0.021 	1
0.0217 	1
0.0224 	1
0.0231 	1
0.0238 	1
0.0245 	1
0.0252 	1
0.0259 	1
0.0266 	1
0.0273 	1
0.028 	1
0.0287 	1
0.0294 	1
0.0301 	1
0.0308 	1
0.0315 	1
0.0322 	1
0.0329 	1
0.0336 	1
0.0343 	1
0.035 	1
0.0357 	1
0.0364 	1
0.0371 	1
0.0378 	1
0.0385 	1
0.0392 	1
0.0399 	1
0.0406 	1
0.0413 	1
0.042 	1
0.0427 	1
0.0434 	1
0.0441 	1
0.0448 	1
0.0455 	1
0.0462 	1
0.0469 	1
0.0476 	1
0.0483 	1
0.049 	1
0.0497 	1
0.0504 	1
0.0511 	1
0.0518 	1
0.0525 	1
0.0532 	1
0.0539 	1
0.0546 	1
0.0553 	1
0.056 	1
0.0567 	1
0.0574 	1
0.0581 	1
0.0588 	1
0.0595 	1
0.0602 	1
0.0609 	1
0.0616 	1
0.0623 	1
0.063 	1
0.0637 	1
0.0644 	1
0.0651 	1
0.0658 	1
0.0665 	1
0.0672 	1
0.0679 	1
0.0686 	1
0.0693 	1
0.07 	1
0.0707 	1
0.0714 	1
0.0721 	1
0.0728 	1
0.0735 	1
0.0742 	1
0.0749 	1
0.0756 	1
0.0763 	1
0.077 	1
0.0777 	1
0.0784 	1
0.0791 	1
0.0798 	1
0.0805 	1
0.0812 	1
0.0819 	1
0.0826 	1
0.0833 	1
0.084 	1
0.0847 	1
0.0854 	1
0.0861 	1
0.0868 	1
0.0875 	1
0.0882 	1
0.0889 	1
0.0896 	1
0.0903 	1
0.091 	1
0.0917 	1
0.0924 	1
0.0931 	1
0.0938 	1
0.0945 	1
0.0952 	1
0.0959 	1
0.0966 	1
0.0973 	1
0.098 	1
0.0987 	1
0.0994 	1
0.1001 	1
0.1008 	1
0.1015 	1
0.1022 	1
0.1029 	1
0.1036 	1
0.1043 	1
0.105 	1
0.1057 	1
0.1064 	1
0.1071 	1
0.1078 	1
0.1085 	1
0.1092 	1
0.1099 	1
0.1106 	1
0.1113 	1
0.112 	1
0.1127 	1
0.1134 	1
0.1141 	1
0.1148 	1
0.1155 	1
0.1162 	1
0.1169 	1
0.1176 	1
0.1183 	1
0.119 	1
0.1197 	1
0.1204 	1
0.1211 	1
0.1218 	1
0.1225 	1
0.1232 	1
0.1239 	1
0.1246 	1
0.1253 	1
0.126 	1
0.1267 	1
0.1274 	1
0.1281 	1
0.1288 	1
0.1295 	1
0.1302 	1
0.1309 	1
0.1316 	1
0.1323 	1
0.133 	1
0.1337 	1
0.1344 	1
0.1351 	1
0.1358 	1
0.1365 	1
0.1372 	1
0.1379 	1
0.1386 	1
0.1393 	1
0.14 	1
0.1407 	1
0.1414 	1
0.1421 	1
0.1428 	1
0.1435 	1
0.1442 	1
0.1449 	1
0.1456 	1
0.1463 	1
0.147 	1
0.1477 	1
0.1484 	1
0.1491 	1
0.1498 	1
0.1505 	1
0.1512 	1
0.1519 	1
0.1526 	1
0.1533 	1
0.154 	1
0.1547 	1
0.1554 	1
0.1561 	1
0.1568 	1
0.1575 	1
0.1582 	1
0.1589 	1
0.1596 	1
0.1603 	1
0.161 	1
0.1617 	1
0.1624 	1
0.1631 	1
0.1638 	1
0.1645 	1
0.1652 	1
0.1659 	1
0.1666 	1
0.1673 	1
0.168 	1
0.1687 	1
0.1694 	1
0.1701 	1
0.1708 	1
0.1715 	1
0.1722 	1
0.1729 	1
0.1736 	1
0.1743 	1
0.175 	1
0.1757 	1
0.1764 	1
0.1771 	1
0.1778 	1
0.1785 	1
0.1792 	1
0.1799 	1
0.1806 	1
0.1813 	1
0.182 	1
0.1827 	1
0.1834 	1
0.1841 	1
0.1848 	1
0.1855 	1
0.1862 	1
0.1869 	1
0.1876 	1
0.1883 	1
0.189 	1
0.1897 	1
0.1904 	1
0.1911 	1
0.1918 	1
0.1925 	1
0.1932 	1
0.1939 	1
0.1946 	1
0.1953 	1
0.196 	1
0.1967 	1
0.1974 	1
0.1981 	1
0.1988 	1
0.1995 	1
0.2002 	1
0.2009 	1
0.2016 	1
0.2023 	1
0.203 	1
0.2037 	1
0.2044 	1
0.2051 	1
0.2058 	1
0.2065 	1
0.2072 	1
0.2079 	1
0.2086 	1
0.2093 	1
0.21 	1
0.2107 	1
0.2114 	1
0.2121 	1
0.2128 	1
0.2135 	1
0.2142 	1
0.2149 	1
0.2156 	1
0.2163 	1
0.217 	1
0.2177 	1
0.2184 	1
0.2191 	1
0.2198 	1
0.2205 	1
0.2212 	1
0.2219 	1
0.2226 	1
0.2233 	1
0.224 	1
0.2247 	1
0.2254 	1
0.2261 	1
0.2268 	1
0.2275 	1
0.2282 	1
0.2289 	1
0.2296 	1
0.2303 	1
0.231 	1
0.2317 	1
0.2324 	1
0.2331 	0.999999
0.2338 	0.999999
0.2345 	0.999999
0.2352 	0.999983
0.2359 	0.999926
0.2366 	0.999869
0.2373 	0.999812
0.238 	0.999756
0.2387 	0.999699
0.2394 	0.999642
0.2401 	0.999159
0.2408 	0.996116
0.2415 	0.993074
0.2422 	0.990032
0.2429 	0.98699
0.2436 	0.983948
0.2443 	0.980906
0.245 	0.977865
0.2457 	0.947935
0.2464 	0.918005
0.2471 	0.888079
0.2478 	0.858153
0.2485 	0.828227
0.2492 	0.7983
0.2499 	0.768374
0.2506 	0.710177
0.2513 	0.647269
0.252 	0.584361
0.2527 	0.521452
0.2534 	0.458544
0.2541 	0.395636
0.2548 	0.332727
0.2555 	0.286283
0.2562 	0.246425
0.2569 	0.206564
0.2576 	0.166702
0.2583 	0.12684
0.259 	0.0869779
0.2597 	0.047116
0.2604 	0.0277235
0.2611 	0.0236828
0.2618 	0.0196414
0.2625 	0.0155997
0.2632 	0.011558
0.2639 	0.00751636
0.2646 	0.00347469
0.2653 	0.00109891
0.266 	0.000944277
0.2667 	0.000789627
0.2674 	0.000634965
0.2681 	0.000480303
0.2688 	0.000325641
0.2695 	0.000170979
0.2702 	5.82049e-05
0.2709 	5.01491e-05
0.2716 	4.20926e-05
0.2723 	3.40354e-05
0.273 	2.59782e-05
0.2737 	1.79209e-05
0.2744 	9.86369e-06
0.2751 	2.9009e-06
0.2758 	2.50455e-06
0.2765 	2.10818e-06
0.2772 	1.71179e-06
0.2779 	1.31539e-06
0.2786 	9.18992e-07
0.2793 	5.22594e-07
0.28 	1.26199e-07
0.2807 	1.09188e-07
0.2814 	9.21766e-08
0.2821 	7.51667e-08
0.2828 	5.81567e-08
0.2835 	4.11467e-08
0.2842 	2.41368e-08
0.2849 	7.1268e-09
0.2856 	4.15299e-09
0.2863 	3.51848e-09
0.287 	2.88422e-09
0.2877 	2.24996e-09
0.2884 	1.61571e-09
0.2891 	9.81448e-10
0.2898 	3.47191e-10
0.2905 	1.50802e-10
0.2912 	1.29555e-10
0.2919 	1.08327e-10
0.2926 	8.71009e-11
0.2933 	6.58745e-11
0.294 	4.4648e-11
0.2947 	2.34216e-11
0.2954 	1.37853e-11
0.2961 	1.28415e-11
0.2968 	1.18988e-11
0.2975 	1.09564e-11
0.2982 	1.0014e-11
0.2989 	9.07155e-12
0.2996 	8.12913e-12
0.3003 	7.43911e-12
0.301 	7.08562e-12
0.3017 	6.73215e-12
0.3024 	6.3787e-12
0.3031 	6.02525e-12
0.3038 	5.6718e-12
0.3045 	5.31835e-12
0.3052 	4.96206e-12
0.3059 	4.5987e-12
0.3066 	4.23526e-12
0.3073 	3.87175e-12
0.308 	3.50825e-12
0.3087 	3.14474e-12
0.3094 	2.78124e-12
0.3101 	2.43762e-12
0.3108 	2.21338e-12
0.3115 	1.98911e-12
0.3122 	1.76478e-12
0.3129 	1.54045e-12
0.3136 	1.31612e-12
0.3143 	1.09179e-12
0.315 	8.6746e-13
0.3157 	7.84396e-13
0.3164 	7.01322e-13
0.3171 	6.18208e-13
0.3178 	5.35095e-13
0.3185 	4.51982e-13
0.3192 	3.68868e-13
0.3199 	2.85755e-13
0.3206 	2.50173e-13
0.3213 	2.22511e-13
0.322 	1.94823e-13
0.3227 	1.67135e-13
0.3234 	1.39446e-13
0.3241 	1.11758e-13
0.3248 	8.40695e-14
0.3255 	7.0256e-14
0.3262 	6.19923e-14
0.3269 	5.3718e-14
0.3276 	4.54428e-14
0.3283 	3.71676e-14
0.329 	2.88924e-14
0.3297 	2.06172e-14
0.3304 	1.59499e-14
0.3311 	1.39886e-14
0.3318 	1.20244e-14
0.3325 	1.00595e-14
0.3332 	8.09454e-15
0.3339 	6.12961e-15
0.3346 	4.16468e-15
0.3353 	2.88499e-15
0.336 	2.51895e-15
0.3367 	2.15236e-15
0.3374 	1.78547e-15
0.3381 	1.41857e-15
0.3388 	1.05168e-15
0.3395 	6.84781e-16
0.3402 	4.07604e-16
0.3409 	3.54723e-16
0.3416 	3.01761e-16
0.3423 	2.4872e-16
0.343 	1.95679e-16
0.3437 	1.42637e-16
0.3444 	8.9596e-17
0.3451 	4.33168e-17
0.3458 	3.7609e-17
0.3465 	3.18932e-17
0.3472 	2.61632e-17
0.3479 	2.04332e-17
0.3486 	1.47031e-17
0.3493 	8.9731e-18
0.35 	3.2431e-18
0.3507 	2.81209e-18
0.3514 	2.38061e-18
0.3521 	1.94741e-18
0.3528 	1.51422e-18
0.3535 	1.08103e-18
0.3542 	6.4784e-19
0.3549 	2.14648e-19
0.3556 	1.3504e-19
0.3563 	1.1435e-19
0.357 	9.35305e-20
0.3577 	7.27109e-20
0.3584 	5.18913e-20
0.3591 	3.10717e-20
0.3598 	1.02521e-20
0.3605 	3.8906e-21
0.3612 	3.3122e-21
0.3619 	2.72873e-21
0.3626 	2.14486e-21
0.3633 	1.561e-21
0.364 	9.77134e-22
0.3647 	3.9327e-22
0.3654 	1.32651e-22
0.3661 	1.1446e-22
0.3668 	9.61096e-23
0.3675 	7.77155e-23
0.3682 	5.93213e-23
0.3689 	4.09271e-23
0.3696 	2.2533e-23
0.3703 	1.13492e-23
0.371 	9.77902e-24
0.3717 	8.19742e-24
0.3724 	6.60947e-24
0.3731 	5.02152e-24
0.3738 	3.43356e-24
0.3745 	1.84561e-24
0.3752 	6.83995e-25
0.3759 	5.88191e-25
0.3766 	4.91772e-25
0.3773 	3.94738e-25
0.378 	2.97704e-25
0.3787 	2.0067e-25
0.3794 	1.03636e-25
0.3801 	2.00642e-26
0.3808 	1.72615e-26
0.3815 	1.44442e-26
0.3822 	1.16007e-26
0.3829 	8.75715e-27
0.3836 	5.91363e-27
0.3843 	3.07011e-27
0.385 	2.26606e-28
0.3857 	1.95359e-28
0.3864 	1.63995e-28
0.3871 	1.32197e-28
0.3878 	1.00399e-28
0.3885 	6.86016e-29
0.3892 	3.68038e-29
0.3899 	5.00602e-30
0.3906 	4.08979e-31
0.3913 	3.4505e-31
0.392 	2.79787e-31
0.3927 	2.14525e-31
0.3934 	1.49263e-31
0.3941 	8.40004e-32
0.3948 	1.87381e-32
0.3955 	8.3186e-35
0.3962 	7.05487e-35
0.3969 	5.75751e-35
0.3976 	4.45757e-35
0.3983 	3.15763e-35
0.399 	1.85769e-35
0.3997 	5.57745e-36
0.4004 	5.86497e-39
0.4011 	4.99832e-39
0.4018 	4.10821e-39
0.4025 	3.21171e-39
0.4032 	2.31521e-39
0.4039 	1.41871e-39
0.4046 	5.22207e-40
0.4053 	9.35663e-42
0.406 	8.0281e-42
0.4067 	6.65158e-42
0.4074 	5.2484e-42
0.4081 	3.84522e-42
0.4088 	2.44204e-42
0.4095 	1.03886e-42
0.4102 	3.52071e-44
0.4109 	3.03237e-44
0.4116 	2.52838e-44
0.4123 	2.00876e-44
0.413 	1.48914e-44
0.4137 	9.69525e-45
0.4144 	4.49906e-45
0.4151 	4.43606e-47
0.4158 	3.83398e-47
0.4165 	3.21718e-47
0.4172 	2.57392e-47
0.4179 	1.93065e-47
0.4186 	1.28739e-47
0.4193 	6.44122e-48
0.42 	8.61615e-51
0.4207 	7.47044e-51
0.4214 	6.30747e-51
0.4221 	5.08115e-51
0.4228 	3.85483e-51
0.4235 	2.62852e-51
0.4242 	1.4022e-51
0.4249 	1.75888e-52
0.4256 	6.27612e-55
0.4263 	5.32754e-55
0.427 	4.31973e-55
0.4277 	3.31192e-55
0.4284 	2.30411e-55
0.4291 	1.2963e-55
0.4298 	2.88495e-56
0.4305 	5.03846e-59
0.4312 	4.29506e-59
0.4319 	3.50676e-59
0.4326 	2.715e-59
0.4333 	1.92325e-59
0.434 	1.13149e-59
0.4347 	3.39735e-60
0.4354 	3.84478e-63
0.4361 	3.28831e-63
0.4368 	2.70431e-63
0.4375 	2.11281e-63
0.4382 	1.5213e-63
0.4389 	9.29798e-64
0.4396 	3.38293e-64
0.4403 	2.77307e-67
0.441 	2.37934e-67
0.4417 	1.9701e-67
0.4424 	1.55224e-67
0.4431 	1.13438e-67
0.4438 	7.16523e-68
0.4445 	2.98664e-68
0.4452 	1.89269e-71
0.4459 	1.629e-71
0.4466 	1.35743e-71
0.4473 	1.07799e-71
0.448 	7.9854e-72
0.4487 	5.19094e-72
0.4494 	2.39648e-72
0.4501 	1.22901e-75
0.4508 	1.06096e-75
0.4515 	8.89396e-76
0.4522 	7.11532e-76
0.4529 	5.33668e-76
0.4536 	3.55804e-76
0.4543 	1.77939e-76
0.455 	7.61879e-80
0.4557 	6.59596e-80
0.4564 	5.56064e-80
0.4571 	4.47949e-80
0.4578 	3.39834e-80
0.4585 	2.31719e-80
0.4592 	1.23604e-80
0.4599 	1.54887e-81
0.4606 	3.9336e-84
0.4613 	3.33386e-84
0.462 	2.70318e-84
0.4627 	2.07249e-84
0.4634 	1.44181e-84
0.4641 	8.11125e-85
0.4648 	1.8044e-85
0.4655 	2.25143e-88
0.4662 	1.91647e-88
0.4669 	1.56453e-88
0.4676 	1.21128e-88
0.4683 	8.58028e-89
0.469 	5.04776e-89
0.4697 	1.51525e-89
0.4704 	1.23896e-92
0.4711 	1.05799e-92
0.4718 	8.69459e-93
0.4725 	6.78863e-93
0.4732 	4.88267e-93
0.4739 	2.97671e-93
0.4746 	1.07075e-93
0.4753 	-1.82268e-95
0.476 	-1.79349e-95
0.4767 	-1.78944e-95
0.4774 	-1.79936e-95
0.4781 	-1.80927e-95
0.4788 	-1.81919e-95
0.4795 	-1.8291e-95
0.4802 	-1.79941e-95
0.4809 	-1.67068e-95
0.4816 	-1.60632e-95
0.4823 	-1.60631e-95
0.483 	-1.6063e-95
0.4837 	-1.60629e-95
0.4844 	-1.60629e-95
0.4851 	-1.58314e-95
0.4858 	-1.42111e-95
0.4865 	-1.31695e-95
0.4872 	-1.31693e-95
0.4879 	-1.31691e-95
0.4886 	-1.31689e-95
0.4893 	-1.31687e-95
0.49 	-1.31684e-95
0.4907 	-1.14889e-95
0.4914 	-1.01692e-95
0.4921 	-1.01689e-95
0.4928 	-1.01687e-95
0.4935 	-1.01684e-95
0.4942 	-1.01682e-95
0.4949 	-1.01679e-95
0.4956 	-8.84903e-96
0.4963 	-7.42025e-96
0.497 	-7.41999e-96
0.4977 	-7.41973e-96
0.4984 	-7.41946e-96
0.4991 	-7.4192e-96
0.4998 	-7.41894e-96
0.5005 	-6.50303e-96
0.5012 	-5.22085e-96
0.5019 	-5.12905e-96
0.5026 	-5.12881e-96
0.5033 	-5.12858e-96
0.504 	-5.12834e-96
0.5047 	-5.12811e-96
0.5054 	-4.56423e-96
0.5061 	-3.5776e-96
0.5068 	-3.36603e-96
0.5075 	-3.36583e-96
0.5082 	-3.36564e-96
0.5089 	-3.36545e-96
0.5096 	-3.36525e-96
0.5103 	-3.06187e-96
0.511 	-2.35421e-96
0.5117 	-2.10139e-96
0.5124 	-2.10124e-96
0.5131 	-2.10109e-96
0.5138 	-2.10095e-96
0.5145 	-2.1008e-96
0.5152 	-1.96464e-96
0.5159 	-1.48843e-96
0.5166 	-1.25028e-96
0.5173 	-1.25018e-96
0.518 	-1.25007e-96
0.5187 	-1.24997e-96
0.5194 	-1.24987e-96
0.5201 	-1.20662e-96
0.5208 	-9.04473e-97
0.5215 	-7.10213e-97
0.5222 	-7.10145e-97
0.5229 	-7.10076e-97
0.5236 	-7.10008e-97
0.5243 	-7.09939e-97
0.525 	-7.09871e-97
0.5257 	-5.28407e-97
0.5264 	-3.85818e-97
0.5271 	-3.85776e-97
0.5278 	-3.85733e-97
0.5285 	-3.8569e-97
0.5292 	-3.85647e-97
0.5299 	-3.85605e-97
0.5306 	-2.9688e-97
0.5313 	-2.00767e-97
0.532 	-2.00741e-97
0.5327 	-2.00716e-97
0.5334 	-2.00691e-97
0.5341 	-2.00666e-97
0.5348 	-2.0064e-97
0.5355 	-1.60471e-97
0.5362 	-1.04243e-97
0.5369 	-1.00214e-97
0.5376 	-1.00199e-97
0.5383 	-1.00185e-97
0.539 	-1.00171e-97
0.5397 	-1.00157e-97
0.5404 	-8.34861e-98
0.5411 	-5.43222e-98
0.5418 	-4.80669e-98
0.5425 	-4.80593e-98
0.5432 	-4.80518e-98
0.5439 	-4.80443e-98
0.5446 	-4.80367e-98
0.5453 	-4.18291e-98
0.546 	-2.73546e-98
0.5467 	-2.21826e-98
0.5474 	-2.21788e-98
0.5481 	-2.2175e-98
0.5488 	-2.21711e-98
0.5495 	-2.21673e-98
0.5502 	-2.01966e-98
0.5509 	-1.33085e-98
0.5516 	-9.86354e-99
0.5523 	-9.86168e-99
0.553 	-9.85981e-99
0.5537 	-9.85794e-99
0.5544 	-9.85607e-99
0.5551 	-9.40467e-99
0.5558 	-6.25589e-99
0.5565 	-4.23136e-99
0.5572 	-4.23049e-99
0.5579 	-4.22962e-99
0.5586 	-4.22875e-99
0.5593 	-4.22788e-99
0.56 	-4.22701e-99
0.5607 	-2.8419e-99
0.5614 	-1.7535e-99
0.5621 	-1.75311e-99
0.5628 	-1.75272e-99
0.5635 	-1.75233e-99
0.5642 	-1.75194e-99
0.5649 	-1.75155e-99
0.5656 	-1.24815e-99
0.5663 	-7.02829e-100
0.567 	-7.02661e-100
0.5677 	-7.02494e-100
0.5684 	-7.02326e-100
0.5691 	-7.02158e-100
0.5698 	-7.01991e-100
0.5705 	-5.30279e-100
0.5712 	-2.89948e-100
0.5719 	-2.72717e-100
0.5726 	-2.72647e-100
0.5733 	-2.72578e-100
0.574 	-2.72508e-100
0.5747 	-2.72439e-100
0.5754 	-2.18082e-100
0.5761 	-1.23008e-100
0.5768 	-1.02613e-100
0.5775 	-1.02586e-100
0.5782 	-1.02558e-100
0.5789 	-1.0253e-100
0.5796 	-1.02502e-100
0.5803 	-8.68846e-101
0.581 	-5.048e-101
0.5817 	-3.74714e-101
0.5824 	-3.74607e-101
0.5831 	-3.74499e-101
0.5838 	-3.74392e-101
0.5845 	-3.74285e-101
0.5852 	-3.35609e-101
0.5859 	-2.00509e-101
0.5866 	-1.3294e-101
0.5873 	-1.329e-101
0.588 	-1.32859e-101
0.5887 	-1.32819e-101
0.5894 	-1.32779e-101
0.5901 	-1.25796e-101
0.5908 	-7.71473e-102
0.5915 	-4.58682e-102
0.5922 	-4.58537e-102
0.5929 	-4.58392e-102
0.5936 	-4.58247e-102
0.5943 	-4.58102e-102
0.595 	-4.57957e-102
0.5957 	-2.87779e-102
0.5964 	-1.54056e-102
0.5971 	-1.54005e-102
0.5978 	-1.53954e-102
0.5985 	-1.53903e-102
0.5992 	-1.53852e-102
0.5999 	-1.53801e-102
0.6006 	-1.04173e-102
0.6013 	-5.04153e-103
0.602 	-5.0398e-103
0.6027 	-5.03806e-103
0.6034 	-5.03633e-103
0.6041 	-5.0346e-103
0.6048 	-5.03286e-103
0.6055 	-3.66299e-103
0.6062 	-1.74585e-103
0.6069 	-1.60838e-103
0.6076 	-1.60781e-103
0.6083 	-1.60723e-103
0.609 	-1.60666e-103
0.6097 	-1.60609e-103
0.6104 	-1.25233e-103
0.6111 	-6.33688e-104
0.6118 	-5.00976e-104
0.6125 	-5.00791e-104
0.6132 	-5.00606e-104
0.6139 	-5.00421e-104
0.6146 	-5.00236e-104
0.6153 	-4.1669e-104
0.616 	-2.21992e-104
0.6167 	-1.5242e-104
0.6174 	-1.52362e-104
0.6181 	-1.52304e-104
0.6188 	-1.52246e-104
0.6195 	-1.52188e-104
0.6202 	-1.35058e-104
0.6209 	-7.5246e-105
0.6216 	-4.53312e-105
0.6223 	-4.53135e-105
0.623 	-4.52957e-105
0.6237 	-4.52779e-105
0.6244 	-4.52602e-105
0.6251 	-4.26807e-105
0.6258 	-2.473e-105
0.6265 	-1.31884e-105
0.6272 	-1.31831e-105
0.6279 	-1.31778e-105
0.6286 	-1.31725e-105
0.6293 	-1.31672e-105
0.63 	-1.31619e-105
0.6307 	-7.89465e-106
0.6314 	-3.75578e-106
0.6321 	-3.75423e-106
0.6328 	-3.75269e-106
0.6335 	-3.75114e-106
0.6342 	-3.74959e-106
0.6349 	-3.74805e-106
0.6356 	-2.45173e-106
0.6363 	-1.04758e-106
0.637 	-1.04713e-106
0.6377 	-1.04669e-106
0.6384 	-1.04625e-106
0.6391 	-1.04581e-106
0.6398 	-1.04537e-106
0.6405 	-7.41681e-107
0.6412 	-3.16689e-107
0.6419 	-2.86218e-107
0.6426 	-2.86095e-107
0.6433 	-2.85972e-107
0.644 	-2.85849e-107
0.6447 	-2.85726e-107
0.6454 	-2.18814e-107
0.6461 	-1.01809e-107
0.6468 	-7.67098e-108
0.6475 	-7.66763e-108
0.6482 	-7.66427e-108
0.6489 	-7.66091e-108
0.6496 	-7.65755e-108
0.6503 	-6.30251e-108
0.651 	-3.14517e-108
0.6517 	-2.01697e-108
0.6524 	-2.01608e-108
0.6531 	-2.01518e-108
0.6538 	-2.01428e-108
0.6545 	-2.01338e-108
0.6552 	-1.77401e-108
0.6559 	-9.38444e-109
0.6566 	-5.20543e-109
0.6573 	-5.20308e-109
0.658 	-5.20072e-109
0.6587 	-5.19836e-109
0.6594 	-5.196e-109
0.6601 	-4.88403e-109
0.6608 	-2.71428e-109
0.6615 	-1.31921e-109
0.6622 	-1.31861e-109
0.6629 	-1.318e-109
0.6636 	-1.31739e-109
0.6643 	-1.31679e-109
0.665 	-1.31618e-109
0.6657 	-7.63054e-110
0.6664 	-3.28417e-110
0.6671 	-3.28264e-110
0.6678 	-3.28111e-110
0.6685 	-3.27958e-110
0.6692 	-3.27805e-110
0.6699 	-3.27651e-110
0.6706 	-2.0891e-110
0.6713 	-8.02943e-111
0.672 	-8.02562e-111
0.6727 	-8.02181e-111
0.6734 	-8.018e-111
0.6741 	-8.0142e-111
0.6748 	-8.01039e-111
0.6755 	-5.57445e-111
0.6762 	-2.16562e-111
0.6769 	-1.92126e-111
0.6776 	-1.92033e-111
0.6783 	-1.9194e-111
0.679 	-1.91847e-111
0.6797 	-1.91754e-111
0.6804 	-1.4459e-111
0.6811 	-6.21224e-112
0.6818 	-4.44332e-112
0.6825 	-4.44108e-112
0.6832 	-4.43884e-112
0.6839 	-4.4366e-112
0.6846 	-4.43436e-112
0.6853 	-3.59703e-112
0.686 	-1.64621e-112
0.6867 	-9.49148e-113
0.6874 	-9.48622e-113
0.6881 	-9.48095e-113
0.6888 	-9.47568e-113
0.6895 	-9.47042e-113
0.6902 	-8.21751e-113
0.6909 	-3.84538e-113
0.6916 	-1.65873e-113
0.6923 	-1.65756e-113
0.693 	-1.65639e-113
0.6937 	-1.65521e-113
0.6944 	-1.65404e-113
0.6951 	-1.5209e-113
0.6958 	-5.9594e-114
0.6965 	-1.24173e-116
0.6972 	-1.02471e-116
0.6979 	-8.07682e-117
0.6986 	-5.90657e-117
0.6993 	-3.73633e-117
0.7 	-1.5661e-117
