0 	1
0.0007 	1
0.0014 	1
0.0021 	1
0.0028 	1
0.0035 	1
0.0042 	1
0.0049 	1
0.0056 	1
0.0063 	1
0.007 	1
0.0077 	1
0.0084 	1
0.0098 	1
0.0105 	1
0.0112 	1
0.0119 	1
0.0126 	1
0.0133 	1
0.014 	1
0.0147 	1
0.0154 	1
0.0161 	1
0.0168 	1
0.0175 	1
0.0182 	1
0.0189 	1
0.0196 	1
0.0203 	1
0.0217 	1
0.0224 	1
0.0231 	1
0.0238 	1
0.0245 	1
0.0252 	1
0.0259 	1
0.0266 	1
0.0273 	1
0.028 	1
0.0287 	1
0.0294 	1
0.0301 	1
0.0308 	1
0.0315 	1
0.0322 	1
0.0329 	1
0.0336 	1
0.0343 	1
0.035 	1
0.0357 	1
0.0364 	1
0.0371 	1
0.0378 	1
0.0385 	1
0.0392 	1
0.0399 	1
0.0406 	1
0.0413 	1
0.042 	1
0.0427 	1
0.0434 	1
0.0441 	1
0.0448 	1
0.0455 	1
0.0462 	1
0.0469 	1
0.0476 	1
0.0483 	1
0.049 	1
0.0497 	1
0.0504 	1
0.0511 	1
0.0518 	1
0.0525 	1
0.0532 	1
0.0539 	1
0.0546 	1
0.0553 	1
0.056 	1
0.0567 	1
0.0574 	1
0.0581 	1
0.0588 	1
0.0595 	1
0.0602 	1
0.0609 	1
0.0616 	1
0.0623 	1
0.063 	1
0.0637 	1
0.0644 	1
0.0651 	1
0.0665 	1
0.0672 	1
0.0679 	1
0.0686 	1
0.0693 	1
0.07 	1
0.0707 	1
0.0714 	1
0.0721 	1
0.0728 	1
0.0735 	1
0.0742 	1
0.0749 	1
0.0756 	1
0.0763 	1
0.077 	1
0.0777 	1
0.0784 	1
0.0791 	1
0.0798 	1
0.0805 	1
0.0812 	1
0.0819 	1
0.0826 	1
0.0833 	1
0.084 	1
0.0847 	1
0.0854 	1
0.0861 	1
0.0868 	1
0.0875 	1
0.0882 	1
0.0889 	1
0.0896 	1
0.0903 	1
0.091 	1
0.0917 	1
0.0924 	1
0.0931 	1
0.0938 	1
0.0945 	1
0.0952 	1
0.0959 	1
0.0966 	1
0.0973 	1
0.098 	1
0.0987 	1
0.0994 	1
0.1001 	1
0.1008 	1
0.1015 	1
0.1022 	1
0.1029 	1
0.1036 	1
0.1043 	1
0.105 	1
0.1057 	1
0.1064 	1
0.1071 	1
0.1078 	1
0.1085 	1
0.1092 	1
0.1099 	1
0.1106 	1
0.1113 	1
0.112 	1
0.1127 	1
0.1134 	1
0.1141 	1
0.1148 	1
0.1155 	1
0.1162 	1
0.1169 	1
0.1176 	1
0.1183 	1
0.119 	1
0.1197 	1
0.1204 	1
0.1211 	1
0.1218 	1
0.1225 	1
0.1232 	1
0.1239 	1
0.1246 	1
0.1253 	1
0.126 	1
0.1267 	1
0.1274 	1
0.1281 	1
0.1288 	1
0.1295 	1
0.1302 	1
0.1309 	1
0.1316 	1
0.1323 	1
0.133 	1
0.1337 	1
0.1344 	1
0.1351 	1
0.1358 	1
0.1365 	1
0.1372 	1
0.1379 	1
0.1386 	1
0.1393 	1
0.14 	1
0.1407 	1
0.1414 	1
0.1421 	1
0.1428 	1
0.1435 	1
0.1442 	1
0.1449 	1
0.1456 	1
0.147 	1
0.1477 	1
0.1484 	1
0.1491 	1
0.1498 	1
0.1505 	1
0.1512 	1
0.1526 	1
0.1533 	1
0.154 	1
0.1547 	1
0.1554 	1
0.1561 	1
0.1568 	1
0.1582 	1
0.1589 	1
0.1596 	1
0.1603 	1
0.161 	1
0.1617 	1
0.1624 	1
0.1631 	1
0.1638 	1
0.1645 	1
0.1652 	1
0.1659 	1
0.1666 	1
0.1673 	1
0.168 	1
0.1687 	1
0.1694 	1
0.1701 	1
0.1708 	1
0.1715 	1
0.1722 	1
0.1729 	1
0.1736 	1
0.1743 	1
0.175 	1
0.1757 	1
0.1764 	1
0.1771 	1
0.1778 	1
0.1785 	1
0.1792 	1
0.1799 	1
0.1806 	1
0.182 	1
0.1827 	1
0.1834 	1
0.1841 	1
0.1848 	1
0.1855 	1
0.1862 	1
0.1869 	1
0.1876 	1
0.1883 	1
0.189 	1
0.1897 	1
0.1904 	1
0.1911 	1
0.1918 	1
0.1932 	1
0.1946 	1
0.1953 	1
0.196 	1
0.1967 	1
0.1974 	1
0.1981 	1
0.1988 	1
0.1995 	1
0.2002 	1
0.2009 	1
0.2016 	1
0.2023 	1
0.203 	1
0.2037 	1
0.2044 	1
0.2051 	1
0.2065 	1
0.2072 	1
0.2079 	1
0.2086 	1
0.2093 	1
0.21 	1
0.2107 	1
0.2114 	1
0.2121 	1
0.2128 	1
0.2135 	1
0.2142 	1
0.2149 	1
0.2156 	1
0.2163 	1
0.217 	1
0.2177 	1
0.2184 	1
0.2191 	1
0.2198 	1
0.2205 	1
0.2212 	1
0.2219 	1
0.2226 	1
0.2233 	1
0.224 	1
0.2247 	1
0.2254 	1
0.2261 	1
0.2268 	1
0.2275 	1
0.2282 	1
0.2289 	1
0.2296 	1
0.2303 	1
0.231 	1
0.2317 	1
0.2324 	1
0.2331 	1
0.2338 	1
0.2345 	1
0.2352 	1
0.2359 	1
0.2366 	1
0.2373 	1
0.238 	1
0.2387 	1
0.2394 	1
0.2401 	0.999968
0.2408 	0.999745
0.2415 	0.999509
0.2422 	0.999253
0.2429 	0.998996
0.2436 	0.998739
0.2443 	0.998483
0.245 	0.998226
0.2464 	0.858625
0.2471 	0.788845
0.2478 	0.719066
0.2485 	0.649287
0.2492 	0.579507
0.2499 	0.509728
0.2506 	0.439951
0.2513 	0.370177
0.252 	0.300434
0.2527 	0.23069
0.2534 	0.160947
0.2541 	0.0912036
0.2548 	0.0214603
0.2555 	0.00139314
0.2562 	0.00119645
0.2576 	0.000756736
0.2583 	0.000536022
0.259 	0.000315308
0.2597 	9.4594e-05
0.2604 	2.15555e-09
0.2611 	1.89219e-09
0.2618 	1.56651e-09
0.2625 	1.22384e-09
0.2639 	5.38489e-10
0.2646 	1.95814e-10
0.2653 	5.95321e-16
0.266 	5.2745e-16
0.2667 	4.42825e-16
0.2674 	3.48893e-16
0.2681 	2.5496e-16
0.2688 	1.61027e-16
0.2695 	6.70949e-17
0.2702 	2.02959e-22
0.2709 	1.8127e-22
0.2716 	1.5452e-22
0.2723 	1.22707e-22
0.273 	9.0894e-23
0.2737 	5.90811e-23
0.2744 	2.72683e-23
0.2751 	7.60908e-29
0.2765 	5.92709e-29
0.2772 	4.74167e-29
0.2779 	3.55626e-29
0.2786 	2.37084e-29
0.2793 	1.18542e-29
0.28 	3.29523e-35
0.2807 	2.98032e-35
0.2814 	2.62357e-35
0.2821 	2.11343e-35
0.2828 	1.60329e-35
0.2835 	1.09316e-35
0.2842 	5.83017e-36
0.2849 	7.28785e-37
0.2856 	1.47465e-41
0.2863 	1.31872e-41
0.287 	1.06923e-41
0.2877 	8.19745e-42
0.2884 	5.70258e-42
0.2891 	3.20771e-42
0.2898 	7.12831e-43
0.2905 	8.70726e-48
0.2912 	7.83302e-48
0.2919 	6.42368e-48
0.2926 	4.97317e-48
0.2933 	3.52267e-48
0.294 	2.07216e-48
0.2947 	6.21654e-49
0.2954 	7.72164e-54
0.2961 	6.97786e-54
0.2968 	5.81843e-54
0.2975 	4.54565e-54
0.2982 	3.27287e-54
0.2989 	2.00009e-54
0.2996 	7.2731e-55
0.3003 	6.49295e-60
0.301 	5.8923e-60
0.3017 	4.99645e-60
0.3024 	3.9366e-60
0.3031 	2.87675e-60
0.3038 	1.81689e-60
0.3045 	7.57042e-61
0.3052 	4.84557e-66
0.3059 	4.41244e-66
0.3066 	3.80427e-66
0.3073 	3.02104e-66
0.308 	2.2378e-66
0.3087 	1.45457e-66
0.3094 	6.71344e-67
0.3101 	3.18212e-72
0.3108 	2.90592e-72
0.3115 	2.54648e-72
0.3122 	2.03718e-72
0.3129 	1.52789e-72
0.3136 	1.01859e-72
0.3143 	5.09297e-73
0.315 	1.83388e-78
0.3157 	1.67871e-78
0.3164 	1.49452e-78
0.3171 	1.20392e-78
0.3178 	9.13319e-79
0.3185 	6.22718e-79
0.3192 	3.32117e-79
0.3199 	4.15154e-80
0.3206 	8.49722e-85
0.3213 	7.68174e-85
0.322 	6.22844e-85
0.3227 	4.77514e-85
0.3234 	3.32184e-85
0.3241 	1.86853e-85
0.3248 	4.15233e-86
0.3255 	3.76694e-91
0.3262 	3.43451e-91
0.3269 	2.81956e-91
0.3276 	2.18289e-91
0.3283 	1.54621e-91
0.329 	9.09537e-92
0.3297 	2.72862e-92
0.3304 	1.46237e-97
0.3311 	1.33583e-97
0.3318 	1.11677e-97
0.3325 	8.72477e-98
0.3332 	6.28183e-98
0.3339 	3.8389e-98
0.3346 	1.39597e-98
0.3353 	4.97145e-104
0.336 	4.54894e-104
0.3367 	3.87028e-104
0.3374 	3.04931e-104
0.3381 	2.22834e-104
0.3388 	1.40738e-104
0.3395 	5.86407e-105
0.3402 	1.48012e-110
0.3409 	1.3564e-110
0.3416 	1.17372e-110
0.3423 	9.3207e-111
0.343 	6.90422e-111
0.3437 	4.48775e-111
0.3444 	2.07127e-111
0.3451 	3.86472e-117
0.3458 	3.54666e-117
0.3465 	3.11938e-117
0.3479 	1.87163e-117
0.3486 	1.24775e-117
0.3493 	6.23877e-118
0.35 	8.8576e-124
0.3507 	8.13919e-124
0.3514 	7.27175e-124
0.3521 	5.8578e-124
0.3528 	4.44385e-124
0.3535 	3.0299e-124
0.3542 	1.61595e-124
0.3549 	2.01995e-125
0.3556 	1.64096e-130
0.3563 	1.48837e-130
0.357 	1.20679e-130
0.3577 	9.25203e-131
0.3584 	6.4362e-131
0.3591 	3.62036e-131
0.3598 	8.04528e-132
0.3605 	2.90968e-137
0.3612 	2.66033e-137
0.3619 	2.18448e-137
0.3626 	1.69121e-137
0.3633 	1.19794e-137
0.364 	7.04671e-138
0.3647 	2.11402e-138
0.3654 	4.54365e-144
0.3661 	4.15962e-144
0.3668 	3.47938e-144
0.3682 	1.95735e-144
0.3689 	1.19634e-144
0.3696 	4.35321e-145
0.3703 	4.39465e-148
0.371 	4.02305e-148
0.3717 	3.42372e-148
0.3724 	2.69788e-148
0.3731 	1.97204e-148
0.3738 	1.24621e-148
0.3745 	5.20368e-149
0.3752 	1.86771e-151
0.3759 	1.71262e-151
0.3766 	1.48252e-151
0.3773 	1.17741e-151
0.378 	8.72292e-152
0.3787 	5.67179e-152
0.3794 	2.62066e-152
0.3801 	5.34036e-155
0.3808 	4.90036e-155
0.3815 	4.30975e-155
0.3822 	3.44805e-155
0.3829 	2.58636e-155
0.3836 	1.72466e-155
0.3843 	8.6296e-156
0.385 	1.26212e-158
0.3857 	1.15827e-158
0.3864 	1.03363e-158
0.3871 	8.32696e-159
0.3885 	4.30838e-159
0.3892 	2.29909e-159
0.3899 	2.89797e-160
0.3906 	2.55852e-162
0.3913 	2.31404e-162
0.392 	1.87637e-162
0.3927 	1.43869e-162
0.3934 	1.00101e-162
0.3941 	5.63333e-163
0.3948 	1.25655e-163
0.3955 	5.68227e-166
0.3962 	5.17472e-166
0.3969 	4.24803e-166
0.3976 	3.2891e-166
0.3983 	2.33017e-166
0.399 	1.37123e-166
0.3997 	4.12301e-167
0.4004 	1.26621e-169
0.4011 	1.15473e-169
0.4018 	9.65022e-170
0.4025 	7.53984e-170
0.4032 	5.42947e-170
0.4039 	3.31909e-170
0.4046 	1.20871e-170
0.4053 	2.68257e-173
0.406 	2.45112e-173
0.4067 	2.08431e-173
0.4074 	1.6423e-173
0.4081 	1.20028e-173
0.4088 	7.58266e-174
0.4095 	3.1625e-174
0.4102 	5.13058e-177
0.4109 	4.69722e-177
0.4116 	4.06244e-177
0.4123 	3.22623e-177
0.413 	2.39003e-177
0.4137 	1.55382e-177
0.4144 	7.17618e-178
0.4151 	8.60844e-181
0.4158 	7.89556e-181
0.4165 	6.94154e-181
0.4172 	5.55348e-181
0.4179 	4.16543e-181
0.4186 	2.77737e-181
0.4193 	1.38931e-181
0.42 	1.25373e-184
0.4207 	1.15173e-184
0.4214 	1.02874e-184
0.4221 	8.28735e-185
0.4228 	6.28733e-185
0.4235 	4.28732e-185
0.4242 	2.2873e-185
0.4249 	2.87282e-186
0.4256 	1.45627e-188
0.4263 	1.32073e-188
0.427 	1.07089e-188
0.4277 	8.21058e-189
0.4284 	5.71222e-189
0.4291 	3.21387e-189
0.4298 	7.15514e-190
0.4305 	1.60101e-192
0.4312 	1.46384e-192
0.4319 	1.20203e-192
0.4326 	9.30644e-193
0.4333 	6.59253e-193
0.434 	3.87862e-193
0.4347 	1.16472e-193
0.4354 	1.53787e-196
0.4361 	1.40801e-196
0.4368 	1.17778e-196
0.4375 	9.20167e-197
0.4382 	6.62558e-197
0.4389 	4.04949e-197
0.4396 	1.4734e-197
0.4403 	1.29789e-200
0.441 	1.18977e-200
0.4417 	1.01303e-200
0.4424 	7.98169e-201
0.4431 	5.83304e-201
0.4438 	3.68439e-201
0.4445 	1.53574e-201
0.4452 	9.68039e-205
0.4459 	8.88439e-205
0.4466 	7.69439e-205
0.4473 	6.11039e-205
0.448 	4.52638e-205
0.4487 	2.94238e-205
0.4494 	1.35837e-205
0.4501 	6.41983e-209
0.4515 	5.19244e-209
0.4522 	4.15403e-209
0.4529 	3.11562e-209
0.4536 	2.0772e-209
0.4543 	1.03879e-209
0.455 	3.80939e-213
0.4557 	3.50372e-213
0.4564 	3.13302e-213
0.4571 	2.52386e-213
0.4578 	1.9147e-213
0.4585 	1.30554e-213
0.4592 	6.96384e-214
0.4599 	8.72241e-215
0.4606 	1.87429e-217
0.4613 	1.70139e-217
0.462 	1.37953e-217
0.4627 	1.05766e-217
0.4634 	7.35792e-218
0.4641 	4.13925e-218
0.4648 	9.20584e-219
0.4655 	9.09071e-222
0.4662 	8.3174e-222
0.4669 	6.83013e-222
0.4676 	5.28794e-222
0.4683 	3.74575e-222
0.469 	2.20355e-222
0.4697 	6.61361e-223
0.4704 	4.02515e-226
0.4711 	3.68692e-226
0.4718 	3.08435e-226
0.4725 	2.40969e-226
0.4732 	1.73502e-226
0.4739 	1.06036e-226
0.4746 	3.85692e-227
0.4753 	1.63779e-230
0.476 	1.50182e-230
0.4767 	1.27888e-230
0.4774 	1.00762e-230
0.4781 	7.36351e-231
0.4788 	4.65087e-231
0.4795 	1.93823e-231
0.4802 	6.15995e-235
0.4809 	5.65464e-235
0.4816 	4.89782e-235
0.4823 	3.88949e-235
0.483 	2.88116e-235
0.4837 	1.87283e-235
0.4844 	8.645e-236
0.4851 	2.1514e-239
0.4858 	1.97699e-239
0.4865 	1.74055e-239
0.4872 	1.39246e-239
0.4879 	1.04436e-239
0.4886 	6.96264e-240
0.4893 	3.48167e-240
0.49 	6.99676e-244
0.4907 	6.43615e-244
0.4914 	5.75585e-244
0.4921 	4.6367e-244
0.4928 	3.51754e-244
0.4935 	2.39839e-244
0.4942 	1.27924e-244
0.4949 	1.60088e-245
0.4956 	1.95257e-248
0.4963 	1.77267e-248
0.497 	1.43731e-248
0.4977 	1.10195e-248
0.4984 	7.66591e-249
0.4991 	4.31233e-249
0.4998 	9.58751e-250
0.5005 	5.5145e-253
0.5012 	5.04602e-253
0.5019 	4.14374e-253
0.5026 	3.20809e-253
0.5033 	2.27244e-253
0.504 	1.33679e-253
0.5047 	4.01144e-254
0.5054 	1.44643e-257
0.5061 	1.32505e-257
0.5068 	1.10852e-257
0.5075 	8.66036e-258
0.5082 	6.23556e-258
0.5089 	3.81076e-258
0.5096 	1.38596e-258
0.5103 	3.51258e-262
0.511 	3.22136e-262
0.5117 	2.74327e-262
0.5124 	2.16139e-262
0.5131 	1.5795e-262
0.5138 	9.97606e-263
0.5145 	4.15716e-263
0.5152 	7.87102e-267
0.5159 	7.22618e-267
0.5166 	6.25942e-267
0.5173 	4.97075e-267
0.518 	3.68208e-267
0.5187 	2.39341e-267
0.5194 	1.10474e-267
0.5201 	1.6221e-271
0.5208 	1.49077e-271
0.5215 	1.31258e-271
0.5222 	1.05007e-271
0.5229 	7.87561e-272
0.5236 	5.25051e-272
0.5243 	2.62541e-272
0.525 	3.06503e-276
0.5257 	2.81972e-276
0.5264 	2.52191e-276
0.5271 	2.03155e-276
0.5278 	1.54119e-276
0.5285 	1.05083e-276
0.5292 	5.60465e-277
0.5299 	7.01039e-278
0.5306 	4.876e-281
0.5313 	4.42716e-281
0.532 	3.5896e-281
0.5327 	2.75205e-281
0.5334 	1.91449e-281
0.5341 	1.07694e-281
0.5348 	2.39383e-282
0.5355 	7.68803e-286
0.5362 	7.03554e-286
0.5369 	5.77754e-286
0.5376 	4.47296e-286
0.5383 	3.16838e-286
0.539 	1.8638e-286
0.5397 	5.59221e-287
0.5404 	1.10234e-290
0.5411 	1.00991e-290
0.5418 	8.44889e-291
0.5425 	6.60073e-291
0.5432 	4.75257e-291
0.5439 	2.9044e-291
0.5446 	1.05624e-291
0.5453 	1.43347e-295
0.546 	1.3147e-295
0.5467 	1.11961e-295
0.5474 	8.82122e-296
0.5481 	6.44632e-296
0.5488 	4.07142e-296
0.5495 	1.69653e-296
0.5502 	1.68569e-300
0.5509 	1.54766e-300
0.5516 	1.34064e-300
0.5523 	1.06463e-300
0.553 	7.8862e-301
0.5537 	5.12609e-301
0.5544 	2.36599e-301
0.5551 	1.78689e-305
0.5558 	1.64228e-305
0.5572 	1.15682e-305
0.5579 	8.6762e-306
0.5586 	5.78419e-306
0.5593 	2.89218e-306
0.56 	1.70141e-310
0.5607 	1.56529e-310
0.5614 	1.4e-310
0.5621 	1.12778e-310
0.5628 	8.55561e-311
0.5635 	5.83341e-311
0.5642 	3.11122e-311
0.5649 	3.89028e-312
0.5656 	1.33452e-315
0.5663 	1.2117e-315
0.567 	9.82463e-316
0.5677 	7.53224e-316
0.5684 	5.23985e-316
0.5691 	2.94746e-316
0.5698 	6.5507e-317
0.5705 	9.5157e-321
0.5712 	8.71038e-321
0.5719 	7.14913e-321
0.5726 	5.53354e-321
0.5733 	3.92288e-321
0.574 	2.30729e-321
0.5747 	6.91692e-322
0.5754 	0
0.5761 	0
0.5768 	0
0.5775 	0
0.5782 	0
0.5789 	0
0.5796 	0
0.5803 	0
0.581 	0
0.5817 	0
0.5824 	0
0.5831 	0
0.5838 	0
0.5845 	0
0.5852 	0
0.5859 	0
0.5866 	0
0.5873 	0
0.588 	0
0.5887 	0
0.5894 	0
0.5901 	0
0.5908 	0
0.5915 	0
0.5922 	0
0.5929 	0
0.5936 	0
0.5943 	0
0.595 	0
0.5957 	0
0.5964 	0
0.5971 	0
0.5978 	0
0.5985 	0
0.5992 	0
0.5999 	0
0.6006 	0
0.6013 	0
0.602 	0
0.6027 	0
0.6034 	0
0.6041 	0
0.6048 	0
0.6055 	0
0.6062 	0
0.6069 	0
0.6076 	0
0.6083 	0
0.609 	0
0.6097 	0
0.6104 	0
0.6111 	0
0.6118 	0
0.6125 	0
0.6132 	0
0.6139 	0
0.6146 	0
0.6153 	0
0.616 	0
0.6167 	0
0.6174 	0
0.6181 	0
0.6188 	0
0.6195 	0
0.6202 	0
0.6209 	0
0.6216 	0
0.6223 	0
0.623 	0
0.6237 	0
0.6244 	0
0.6251 	0
0.6258 	0
0.6265 	0
0.6272 	0
0.6279 	0
0.6286 	0
0.6293 	0
0.63 	0
0.6307 	0
0.6314 	0
0.6321 	0
0.6328 	0
0.6335 	0
0.6342 	0
0.6349 	0
0.6356 	0
0.6363 	0
0.637 	0
0.6377 	0
0.6384 	0
0.6391 	0
0.6398 	0
0.6405 	0
0.6412 	0
0.6419 	0
0.6426 	0
0.6433 	0
0.644 	0
0.6447 	0
0.6454 	0
0.6461 	0
0.6468 	0
0.6475 	0
0.6482 	0
0.6489 	0
0.6496 	0
0.6503 	0
0.651 	0
0.6517 	0
0.6524 	0
0.6531 	0
0.6538 	0
0.6545 	0
0.6552 	0
0.6559 	0
0.6566 	0
0.6573 	0
0.658 	0
0.6587 	0
0.6594 	0
0.6601 	0
0.6608 	0
0.6615 	0
0.6622 	0
0.6629 	0
0.6636 	0
0.6643 	0
0.665 	0
0.6664 	0
0.6671 	0
0.6678 	0
0.6685 	0
0.6692 	0
0.6699 	0
0.6706 	0
0.6713 	0
0.672 	0
0.6727 	0
0.6734 	0
0.6741 	0
0.6748 	0
0.6755 	0
0.6762 	0
0.6769 	0
0.6776 	0
0.6783 	0
0.679 	0
0.6797 	0
0.6804 	0
0.6811 	0
0.6818 	0
0.6825 	0
0.6832 	0
0.6839 	0
0.6846 	0
0.6853 	0
0.686 	0
0.6867 	0
0.6881 	0
0.6888 	0
0.6895 	0
0.6902 	0
0.6916 	0
0.6923 	0
0.693 	0
0.6937 	0
0.6944 	0
0.6951 	0
0.6958 	0
0.6965 	0
0.6972 	0
0.6979 	0
0.6986 	0
0.6993 	0
0.7 	0
