0 	1
0.0007 	1
0.0014 	1
0.0021 	1
0.0028 	1
0.0035 	1
0.0042 	1
0.0049 	1
0.0056 	1
0.0063 	1
0.007 	1
0.0077 	1
0.0084 	1
0.0091 	1
0.0098 	1
0.0105 	1
0.0112 	1
0.0119 	1
0.0126 	1
0.0133 	1
0.014 	1
0.0147 	1
0.0154 	1
0.0161 	1
0.0168 	1
0.0175 	1
0.0182 	1
0.0189 	1
0.0196 	1
0.0203 	1
0.021 	1
0.0217 	1
0.0224 	1
0.0231 	1
0.0238 	1
0.0245 	1
0.0252 	1
0.0259 	1
0.0266 	1
0.0273 	1
0.028 	1
0.0287 	1
0.0294 	1
0.0301 	1
0.0308 	1
0.0315 	1
0.0322 	1
0.0329 	1
0.0336 	1
0.0343 	1
0.035 	1
0.0357 	1
0.0364 	1
0.0371 	1
0.0378 	1
0.0385 	1
0.0392 	1
0.0399 	1
0.0406 	1
0.0413 	1
0.042 	1
0.0427 	1
0.0434 	1
0.0441 	1
0.0448 	1
0.0455 	1
0.0462 	1
0.0469 	1
0.0476 	1
0.0483 	1
0.049 	1
0.0497 	1
0.0504 	1
0.0511 	1
0.0518 	1
0.0525 	1
0.0532 	1
0.0539 	1
0.0546 	1
0.0553 	1
0.056 	1
0.0567 	1
0.0574 	1
0.0581 	1
0.0588 	1
0.0595 	1
0.0602 	1
0.0609 	1
0.0616 	1
0.0623 	1
0.063 	1
0.0637 	1
0.0644 	1
0.0651 	1
0.0658 	1
0.0665 	1
0.0672 	1
0.0679 	1
0.0686 	1
0.0693 	1
0.07 	1
0.0707 	1
0.0714 	1
0.0721 	1
0.0728 	1
0.0735 	1
0.0742 	1
0.0749 	1
0.0756 	1
0.0763 	1
0.077 	1
0.0777 	1
0.0784 	1
0.0791 	1
0.0798 	1
0.0805 	1
0.0812 	1
0.0819 	1
0.0826 	1
0.0833 	1
0.084 	1
0.0847 	1
0.0854 	1
0.0861 	1
0.0868 	1
0.0875 	1
0.0882 	1
0.0889 	1
0.0896 	1
0.0903 	1
0.091 	1
0.0917 	1
0.0924 	1
0.0931 	1
0.0938 	1
0.0945 	1
0.0952 	1
0.0959 	1
0.0966 	1
0.0973 	1
0.098 	1
0.0987 	1
0.0994 	1
0.1001 	1
0.1008 	1
0.1015 	1
0.1022 	1
0.1029 	1
0.1036 	1
0.1043 	1
0.105 	1
0.1057 	1
0.1064 	1
0.1071 	1
0.1078 	1
0.1085 	1
0.1092 	1
0.1099 	1
0.1106 	1
0.1113 	1
0.112 	1
0.1127 	1
0.1134 	1
0.1141 	1
0.1148 	1
0.1155 	1
0.1162 	1
0.1169 	1
0.1176 	1
0.1183 	1
0.119 	1
0.1197 	1
0.1204 	1
0.1211 	1
0.1218 	1
0.1225 	1
0.1232 	1
0.1239 	1
0.1246 	1
0.1253 	1
0.126 	1
0.1267 	1
0.1274 	1
0.1281 	1
0.1288 	1
0.1295 	1
0.1302 	1
0.1309 	1
0.1316 	1
0.1323 	1
0.133 	1
0.1337 	1
0.1344 	1
0.1351 	1
0.1358 	1
0.1365 	1
0.1372 	1
0.1379 	1
0.1386 	1
0.1393 	1
0.14 	1
0.1407 	1
0.1414 	1
0.1421 	1
0.1428 	1
0.1435 	1
0.1442 	1
0.1449 	1
0.1456 	1
0.1463 	1
0.147 	1
0.1477 	1
0.1484 	1
0.1491 	1
0.1498 	1
0.1505 	1
0.1512 	1
0.1519 	1
0.1526 	1
0.1533 	1
0.154 	1
0.1547 	1
0.1554 	1
0.1561 	1
0.1568 	1
0.1575 	1
0.1582 	1
0.1589 	1
0.1596 	1
0.1603 	1
0.161 	0.999998
0.1617 	0.999996
0.1624 	0.999995
0.1631 	0.999993
0.1638 	0.999992
0.1645 	0.999991
0.1652 	0.999987
0.1659 	0.999967
0.1666 	0.999946
0.1673 	0.999925
0.168 	0.999903
0.1687 	0.999882
0.1694 	0.999861
0.1701 	0.999829
0.1708 	0.99975
0.1715 	0.999675
0.1722 	0.999597
0.1729 	0.999519
0.1736 	0.99944
0.1743 	0.999362
0.175 	0.999294
0.1757 	0.999142
0.1764 	0.999046
0.1771 	0.99895
0.1778 	0.998854
0.1785 	0.998758
0.1792 	0.998662
0.1799 	0.998581
0.1806 	0.998508
0.1813 	0.998413
0.182 	0.998337
0.1827 	0.998261
0.1834 	0.998185
0.1841 	0.998109
0.1848 	0.998033
0.1855 	0.997996
0.1862 	0.997788
0.1869 	0.997508
0.1876 	0.997241
0.1883 	0.997029
0.189 	0.996818
0.1897 	0.996606
0.1904 	0.996459
0.1911 	0.996457
0.1918 	0.99645
0.1925 	0.996443
0.1932 	0.996679
0.1939 	0.996955
0.1946 	0.997357
0.1953 	0.997372
0.196 	0.997153
0.1967 	0.996609
0.1974 	0.996077
0.1981 	0.995216
0.1988 	0.99521
0.1995 	0.996827
0.2002 	0.997894
0.2009 	0.999261
0.2016 	0.999993
0.203 	0.999988
0.2044 	0.999747
0.2051 	0.999279
0.2058 	0.997694
0.2065 	0.995828
0.2072 	0.993482
0.2086 	0.990919
0.2093 	0.991864
0.2107 	0.995865
0.2121 	0.99917
0.2135 	0.999796
0.2149 	0.999764
0.2163 	0.999828
0.2177 	0.9999
0.2191 	0.999715
0.2205 	0.997802
0.2219 	0.992907
0.2233 	0.989536
0.224 	0.990093
0.2254 	0.99578
0.2268 	0.999022
0.2275 	0.998968
0.2282 	0.997828
0.2296 	0.995981
0.2303 	0.99587
0.2317 	0.997733
0.2331 	0.999511
0.2345 	0.99986
0.2359 	0.999727
0.2366 	0.999671
0.238 	0.999645
0.2394 	0.999446
0.2401 	0.999094
0.2415 	0.996934
0.2429 	0.995842
0.2436 	0.996854
0.245 	0.999662
0.2464 	0.999815
0.2478 	0.99944
0.2492 	0.998657
0.2506 	0.998312
0.2513 	0.998451
0.2527 	0.999328
0.2541 	0.999832
0.2555 	0.999958
0.2562 	0.999961
0.2576 	0.999938
0.259 	0.999792
0.2597 	0.99967
0.2611 	0.999486
0.2625 	0.999616
0.2639 	0.999854
0.2653 	0.999675
0.2667 	0.998985
0.2674 	0.998614
0.2688 	0.99818
0.2702 	0.997434
0.2716 	0.9969
0.2723 	0.996843
0.2737 	0.996826
0.2751 	0.996927
0.2765 	0.997687
0.2772 	0.9981
0.2786 	0.998464
0.2793 	0.998799
0.2807 	0.999581
0.2821 	0.99994
0.2835 	0.999966
0.2849 	0.999953
0.2863 	0.999868
0.287 	0.999789
0.2877 	0.999734
0.2891 	0.999787
0.2905 	0.999942
0.2919 	0.999997
0.2933 	1
0.294 	1
0.2954 	1
0.2968 	1
0.2975 	1
0.2989 	0.999999
0.3003 	0.999992
0.3017 	0.999968
0.3031 	0.999945
0.3038 	0.999937
0.3045 	0.999926
0.3052 	0.999914
0.3066 	0.999902
0.3073 	0.999912
0.3087 	0.999939
0.3101 	0.999943
0.3108 	0.999949
0.3122 	0.999974
0.3136 	0.999997
0.315 	1
0.3164 	1
0.3178 	1
0.3185 	1
0.3192 	0.999999
0.3206 	0.999992
0.3213 	0.999985
0.3227 	0.999962
0.3241 	0.999943
0.3255 	0.999937
0.3269 	0.999943
0.3276 	0.99995
0.329 	0.999969
0.3304 	0.999988
0.3311 	0.999996
0.3325 	1
0.3332 	0.999999
0.3346 	0.999998
0.336 	0.999998
0.3374 	0.999998
0.3388 	0.999999
0.3395 	1
0.3402 	0.999999
0.3416 	0.999979
0.343 	0.999818
0.3444 	0.999429
0.3458 	0.999308
0.3465 	0.999448
0.3479 	0.999884
0.3486 	0.999977
0.35 	1
0.3514 	1
0.3528 	0.999799
0.3542 	0.980212
0.3556 	0.778572
0.357 	0.329363
0.3577 	0.127302
0.3591 	0.00138486
0.3605 	9.19015e-06
0.3612 	7.85232e-07
0.3626 	3.28542e-09
0.3633 	2.21077e-09
0.3647 	3.01075e-09
0.3654 	4.75888e-09
0.3661 	6.99427e-09
0.3675 	1.25436e-08
0.3682 	1.05701e-08
0.3689 	8.11613e-09
0.3703 	1.23902e-09
0.371 	6.40278e-10
0.3724 	4.2643e-10
0.3731 	5.23135e-10
0.3738 	1.38696e-09
0.3752 	5.05707e-08
0.3766 	3.30732e-07
0.378 	7.90765e-07
0.3794 	1.13434e-06
0.3808 	8.86623e-07
0.3822 	2.086e-07
0.3829 	3.82871e-08
0.3843 	1.12173e-09
0.3857 	1.12439e-09
0.3864 	1.34229e-09
0.3878 	1.52094e-09
0.3892 	4.67736e-09
0.3906 	1.40392e-08
0.392 	1.59442e-08
0.3934 	6.10044e-09
0.3948 	5.85063e-09
0.3962 	3.10007e-08
0.3969 	4.39155e-08
0.3983 	4.12572e-08
0.3997 	1.207e-08
0.4011 	4.3205e-09
0.4025 	3.08032e-08
0.4039 	9.10343e-08
0.4053 	7.12826e-08
0.406 	3.5351e-08
0.4067 	1.45622e-08
0.4074 	2.21462e-09
0.4081 	3.07674e-10
0.4088 	1.66546e-10
0.4102 	6.85126e-10
0.4116 	1.98338e-09
0.413 	2.65282e-09
0.4137 	2.39399e-09
0.4151 	1.52046e-09
0.4158 	1.49085e-09
0.4165 	1.37607e-09
0.4172 	1.10776e-09
0.4179 	7.81883e-10
0.4186 	4.12836e-10
0.4193 	2.26534e-10
0.42 	9.032e-11
0.4214 	4.92352e-11
0.4228 	2.49754e-11
0.4242 	7.11951e-12
0.4249 	3.14635e-12
0.4256 	1.61977e-12
0.4263 	5.6042e-13
0.427 	2.77595e-13
0.4284 	2.7465e-14
0.4298 	1.86208e-15
0.4305 	3.51817e-16
0.4312 	7.211e-17
0.4326 	1.57527e-16
0.4333 	2.80436e-16
0.434 	4.02774e-16
0.4347 	5.23969e-16
0.4354 	5.09649e-16
0.4361 	3.93694e-16
0.4375 	6.96874e-17
0.4389 	8.36038e-18
0.4396 	3.04014e-18
0.4403 	2.39943e-32
0.441 	1.75851e-32
0.4417 	1.01922e-32
0.4431 	5.84376e-33
0.4445 	6.88157e-33
0.4452 	3.37482e-33
0.4466 	-4.70909e-34
0.448 	4.63326e-35
0.4494 	-1.53225e-34
0.4508 	-6.32532e-35
0.4515 	1.39474e-20
0.4529 	9.12756e-20
0.4536 	1.28986e-19
0.4543 	1.28872e-19
0.4557 	1.00495e-19
0.4564 	8.32763e-20
0.4571 	6.87497e-20
0.4585 	4.58302e-20
0.4599 	2.89814e-20
0.4613 	1.74651e-20
0.4627 	1.07969e-20
0.4641 	6.89945e-21
0.4655 	4.52758e-21
0.4669 	2.94579e-21
0.4676 	2.28651e-21
0.4683 	1.65354e-21
0.469 	1.08767e-21
0.4697 	6.42474e-22
0.4711 	2.58269e-22
0.4725 	1.58172e-22
0.4739 	7.07711e-23
0.4746 	3.84893e-23
0.4753 	1.60193e-23
0.4767 	2.68818e-24
0.4781 	1.16381e-24
0.4788 	6.30991e-25
0.4795 	3.39199e-25
0.4802 	1.1209e-25
0.4809 	4.66877e-26
0.4823 	2.23734e-27
0.483 	1.08178e-42
0.4837 	-4.59519e-43
0.4851 	-2.30952e-43
0.4865 	-6.73711e-45
0.4879 	-1.48846e-44
0.4893 	-2.16081e-44
0.4907 	-7.71497e-45
0.4921 	-5.82907e-45
0.4935 	-7.31215e-45
0.4949 	-4.58779e-45
0.4963 	-2.67409e-45
0.4977 	2.36114e-43
0.4991 	3.30483e-39
0.4998 	9.91281e-39
0.5012 	4.42386e-36
0.5019 	8.99971e-35
0.5026 	2.52025e-34
0.504 	1.62711e-33
0.5054 	3.85513e-33
0.5068 	5.25217e-33
0.5082 	4.56789e-33
0.5089 	3.55992e-33
0.5103 	1.56864e-33
0.511 	1.24166e-33
0.5124 	7.3594e-34
0.5138 	2.60192e-34
0.5152 	3.74537e-35
0.5159 	1.24838e-35
0.5166 	8.44204e-54
0.518 	3.6708e-53
0.5194 	-1.40143e-54
0.5208 	-3.06567e-55
0.5215 	-2.07259e-55
0.5229 	-2.32248e-57
0.5243 	6.94737e-58
0.5257 	1.21125e-43
0.5271 	3.70112e-43
0.5278 	4.16693e-43
0.5292 	3.01983e-43
0.5306 	1.90877e-43
0.5313 	1.28816e-43
0.532 	5.36735e-44
0.5327 	1.38756e-46
0.5334 	6.24401e-46
0.5341 	4.04216e-45
0.5355 	1.81586e-44
0.5369 	3.02635e-44
0.5376 	3.28773e-44
0.539 	2.70083e-44
0.5404 	1.50103e-44
0.5418 	6.39079e-45
0.5432 	2.22433e-45
0.5446 	6.12771e-46
0.546 	1.20092e-46
0.5474 	6.24663e-48
0.5481 	3.77384e-49
0.5495 	5.22782e-64
0.5502 	5.69382e-65
0.5509 	1.25047e-64
0.5523 	-9.31806e-65
0.553 	-8.11719e-65
0.5544 	3.7304e-66
0.5551 	-9.53498e-67
0.5565 	1.3567e-52
0.5579 	1.01989e-51
0.5593 	2.02766e-51
0.56 	2.38631e-51
0.5614 	2.67993e-51
0.5621 	2.62536e-51
0.5628 	2.3633e-51
0.5635 	1.8246e-51
0.5649 	5.86182e-52
0.5656 	3.1285e-52
0.5663 	1.12304e-52
0.5677 	3.63127e-53
0.5691 	8.52745e-54
0.5705 	7.68735e-55
0.5719 	-2.80616e-71
0.5733 	3.49974e-72
0.5747 	-1.55056e-74
0.5761 	-8.94827e-74
0.5775 	3.66888e-74
0.5789 	1.23038e-63
0.5796 	6.96194e-63
0.5803 	1.30043e-62
0.581 	1.94612e-62
0.5824 	2.1746e-62
0.5838 	3.04672e-62
0.5852 	4.09711e-62
0.5866 	2.55266e-62
0.588 	8.43008e-63
0.5894 	1.79379e-63
0.5908 	-9.70009e-80
0.5922 	-4.84831e-80
0.5936 	-1.21686e-80
0.5943 	-5.07858e-81
0.595 	-8.11049e-83
0.5964 	5.92393e-83
0.5978 	-1.71231e-82
0.5985 	-5.39951e-83
0.5999 	1.00231e-69
0.6013 	2.29813e-69
0.602 	2.34449e-69
0.6034 	2.10436e-69
0.6041 	1.77367e-69
0.6048 	1.32432e-69
0.6055 	9.14845e-70
0.6062 	5.21322e-70
0.6069 	3.20574e-70
0.6083 	9.28428e-71
0.609 	4.8831e-71
0.6104 	2.22167e-71
0.6118 	1.10558e-71
0.6132 	4.70214e-72
0.6139 	2.4563e-72
0.6146 	1.14369e-72
0.616 	-2.88922e-74
0.6167 	-2.04334e-73
0.6181 	-4.65596e-73
0.6188 	-6.25246e-73
0.6202 	-9.30429e-73
0.6209 	-1.04951e-72
0.6223 	-1.27059e-72
0.6237 	-1.46939e-72
0.6251 	-1.6212e-72
0.6265 	-1.71068e-72
0.6279 	-1.73884e-72
0.6293 	-1.71598e-72
0.6307 	-1.65938e-72
0.6321 	-1.58416e-72
0.6335 	-1.49988e-72
0.6349 	-1.41197e-72
0.6363 	-1.32357e-72
0.6377 	-1.23669e-72
0.6391 	-1.15256e-72
0.6405 	-1.072e-72
0.6419 	-9.95679e-73
0.6426 	-9.58924e-73
0.644 	-8.89977e-73
0.6447 	-8.57371e-73
0.6461 	-7.95832e-73
0.6475 	-7.39532e-73
0.6489 	-6.88956e-73
0.6496 	-6.65757e-73
0.6503 	-6.43548e-73
0.651 	-6.22659e-73
0.6517 	-6.03243e-73
0.6531 	-5.67963e-73
0.6545 	-5.37595e-73
0.6559 	-5.12064e-73
0.6573 	-4.91325e-73
0.6587 	-4.75307e-73
0.6601 	-4.64271e-73
0.6615 	-4.58029e-73
0.6622 	-4.56613e-73
0.6629 	-4.56329e-73
0.6643 	-4.5889e-73
0.6657 	-4.65194e-73
0.6664 	-4.69323e-73
0.6678 	-4.79194e-73
0.6692 	-4.88549e-73
0.6699 	-4.92474e-73
0.6706 	-4.94121e-73
0.6713 	-4.95072e-73
0.6727 	-4.87015e-73
0.6741 	-4.65082e-73
0.6748 	-4.48855e-73
0.6762 	-4.04531e-73
0.6776 	-3.46915e-73
0.679 	-2.82492e-73
0.6797 	-2.4988e-73
0.6804 	-2.18451e-73
0.6811 	-1.87909e-73
0.6825 	-1.33928e-73
0.6839 	-9.1484e-74
0.6853 	-5.97546e-74
0.6867 	-3.73027e-74
0.6874 	-2.8561e-74
0.6888 	-1.64171e-74
0.6902 	-9.07816e-75
0.6916 	-4.70418e-75
0.693 	-2.24918e-75
0.6944 	-9.5247e-76
0.6951 	-5.45461e-76
0.6958 	-3.33765e-76
0.6965 	-1.6914e-76
0.6979 	-4.08935e-77
0.6986 	-1.23786e-77
0.6993 	-4.07685e-78
0.7 	-9.67927e-79
