0 	1
0.0007 	1
0.0014 	1
0.0021 	1
0.0028 	1
0.0035 	1
0.0042 	1
0.0049 	1
0.0056 	1
0.0063 	1
0.007 	1
0.0077 	1
0.0084 	1
0.0091 	1
0.0098 	1
0.0105 	1
0.0112 	1
0.0119 	1
0.0126 	1
0.0133 	1
0.014 	1
0.0147 	1
0.0154 	1
0.0161 	1
0.0168 	1
0.0175 	1
0.0182 	1
0.0189 	1
0.0196 	1
0.0203 	1
0.021 	1
0.0217 	1
0.0224 	1
0.0231 	1
0.0238 	1
0.0245 	1
0.0252 	1
0.0259 	1
0.0266 	1
0.0273 	1
0.028 	1
0.0287 	1
0.0294 	1
0.0301 	1
0.0308 	1
0.0315 	1
0.0322 	1
0.0329 	1
0.0336 	1
0.0343 	1
0.035 	1
0.0357 	1
0.0364 	1
0.0371 	1
0.0378 	1
0.0385 	1
0.0392 	1
0.0399 	1
0.0406 	1
0.0413 	1
0.042 	1
0.0427 	1
0.0434 	1
0.0441 	1
0.0448 	1
0.0455 	1
0.0462 	1
0.0469 	1
0.0476 	1
0.0483 	1
0.049 	1
0.0497 	1
0.0504 	1
0.0511 	1
0.0518 	1
0.0525 	1
0.0532 	1
0.0539 	1
0.0546 	1
0.0553 	1
0.056 	1
0.0567 	1
0.0574 	1
0.0581 	1
0.0588 	1
0.0595 	1
0.0602 	1
0.0609 	1
0.0616 	1
0.0623 	1
0.063 	1
0.0637 	1
0.0644 	1
0.0651 	1
0.0658 	1
0.0665 	1
0.0672 	1
0.0679 	1
0.0686 	1
0.0693 	1
0.07 	1
0.0707 	1
0.0714 	1
0.0721 	1
0.0728 	1
0.0735 	1
0.0742 	1
0.0749 	1
0.0756 	1
0.0763 	1
0.077 	1
0.0777 	1
0.0784 	1
0.0791 	1
0.0798 	1
0.0805 	1
0.0812 	1
0.0819 	1
0.0826 	1
0.0833 	1
0.084 	1
0.0847 	1
0.0854 	1
0.0861 	1
0.0868 	1
0.0875 	1
0.0882 	1
0.0889 	1
0.0896 	1
0.0903 	1
0.091 	1
0.0917 	1
0.0924 	1
0.0931 	1
0.0938 	1
0.0945 	1
0.0952 	1
0.0959 	1
0.0966 	1
0.0973 	1
0.098 	1
0.0987 	1
0.0994 	1
0.1001 	1
0.1008 	1
0.1015 	1
0.1022 	1
0.1029 	1
0.1036 	1
0.1043 	1
0.105 	1
0.1057 	1
0.1064 	1
0.1071 	1
0.1078 	1
0.1085 	1
0.1092 	1
0.1099 	1
0.1106 	1
0.1113 	1
0.112 	1
0.1127 	1
0.1134 	1
0.1141 	1
0.1148 	1
0.1155 	1
0.1162 	1
0.1169 	1
0.1176 	1
0.1183 	1
0.119 	1
0.1197 	1
0.1204 	1
0.1211 	1
0.1218 	1
0.1225 	1
0.1232 	1
0.1239 	1
0.1246 	1
0.1253 	1
0.126 	1
0.1267 	1
0.1274 	1
0.1281 	1
0.1288 	1
0.1295 	1
0.1302 	1
0.1309 	1
0.1316 	1
0.1323 	1
0.133 	1
0.1337 	1
0.1344 	1
0.1351 	1
0.1358 	1
0.1365 	1
0.1372 	1
0.1379 	1
0.1386 	1
0.1393 	1
0.14 	1
0.1407 	1
0.1414 	1
0.1421 	1
0.1428 	1
0.1435 	1
0.1442 	1
0.1449 	1
0.1456 	1
0.1463 	1
0.147 	1
0.1477 	1
0.1484 	1
0.1491 	1
0.1498 	1
0.1505 	1
0.1512 	1
0.1519 	1
0.1526 	1
0.1533 	1
0.154 	1
0.1547 	1
0.1554 	1
0.1561 	1
0.1568 	1
0.1575 	1
0.1582 	1
0.1589 	1
0.1596 	1
0.1603 	1
0.161 	1
0.1617 	1
0.1624 	1
0.1631 	1
0.1638 	1
0.1645 	1
0.1652 	1
0.1659 	1
0.1666 	1
0.1673 	1
0.168 	1
0.1687 	1
0.1694 	1
0.1701 	1
0.1708 	1
0.1715 	1
0.1722 	1
0.1729 	1
0.1736 	1
0.1743 	1
0.175 	1
0.1757 	1
0.1764 	1
0.1771 	1
0.1778 	1
0.1785 	1
0.1792 	1
0.1799 	1
0.1806 	1
0.1813 	1
0.182 	1
0.1827 	1
0.1834 	1
0.1841 	1
0.1848 	1
0.1855 	1
0.1862 	1
0.1869 	1
0.1876 	1
0.1883 	1
0.189 	1
0.1897 	1
0.1904 	1
0.1911 	1
0.1918 	1
0.1925 	1
0.1932 	1
0.1939 	1
0.1946 	1
0.1953 	1
0.196 	1
0.1967 	1
0.1974 	1
0.1981 	1
0.1988 	1
0.1995 	1
0.2002 	1
0.2009 	1
0.2016 	1
0.2023 	1
0.203 	1
0.2037 	1
0.2044 	1
0.2051 	1
0.2058 	1
0.2065 	1
0.2072 	1
0.2079 	1
0.2086 	1
0.2093 	1
0.21 	1
0.2107 	0.999999
0.2114 	0.999999
0.2121 	0.999998
0.2128 	0.999997
0.2135 	0.999997
0.2142 	0.999996
0.2149 	0.999995
0.2156 	0.999987
0.2163 	0.999977
0.217 	0.999967
0.2177 	0.999957
0.2184 	0.999947
0.2191 	0.999937
0.2198 	0.999928
0.2205 	0.99983
0.2212 	0.999698
0.2219 	0.999566
0.2226 	0.999434
0.2233 	0.999302
0.224 	0.99917
0.2247 	0.999038
0.2254 	0.997443
0.2261 	0.994752
0.2268 	0.99206
0.2275 	0.989369
0.2282 	0.986677
0.2289 	0.983986
0.2296 	0.981294
0.2303 	0.966403
0.231 	0.935229
0.2317 	0.904055
0.2324 	0.872881
0.2331 	0.841708
0.2338 	0.810534
0.2345 	0.77936
0.2352 	0.739577
0.2359 	0.678265
0.2366 	0.616952
0.2373 	0.55564
0.238 	0.494327
0.2387 	0.433015
0.2394 	0.371702
0.2401 	0.313637
0.2408 	0.275155
0.2415 	0.236672
0.2422 	0.198189
0.2429 	0.159706
0.2436 	0.121222
0.2443 	0.082739
0.245 	0.0442622
0.2457 	0.0382741
0.2464 	0.0322894
0.2471 	0.0263046
0.2478 	0.0203197
0.2485 	0.0143348
0.2492 	0.00834992
0.2499 	0.00236504
0.2506 	0.00133112
0.2513 	0.00112085
0.252 	0.000910569
0.2527 	0.000700285
0.2534 	0.000490002
0.2541 	0.000279719
0.2548 	6.94353e-05
0.2555 	8.46869e-06
0.2562 	7.15276e-06
0.2569 	5.83668e-06
0.2576 	4.52059e-06
0.2583 	3.2045e-06
0.259 	1.88841e-06
0.2597 	5.72324e-07
0.2604 	7.95634e-09
0.2611 	6.76047e-09
0.2618 	5.56452e-09
0.2625 	4.36853e-09
0.2632 	3.17255e-09
0.2639 	1.97657e-09
0.2646 	7.80586e-10
0.2653 	9.41689e-11
0.266 	8.64188e-11
0.2667 	7.86737e-11
0.2674 	7.09312e-11
0.2681 	6.31887e-11
0.2688 	5.54463e-11
0.2695 	4.77038e-11
0.2702 	4.1149e-11
0.2709 	3.75607e-11
0.2716 	3.39747e-11
0.2723 	3.03912e-11
0.273 	2.68076e-11
0.2737 	2.32241e-11
0.2744 	1.96405e-11
0.2751 	1.63419e-11
0.2758 	1.47533e-11
0.2765 	1.31657e-11
0.2772 	1.15799e-11
0.2779 	9.99409e-12
0.2786 	8.4083e-12
0.2793 	6.82251e-12
0.28 	5.23693e-12
0.2807 	4.72866e-12
0.2814 	4.22083e-12
0.2821 	3.71399e-12
0.2828 	3.20715e-12
0.2835 	2.70032e-12
0.2842 	2.19348e-12
0.2849 	1.68664e-12
0.2856 	1.48421e-12
0.2863 	1.33252e-12
0.287 	1.18133e-12
0.2877 	1.03014e-12
0.2884 	8.78946e-13
0.2891 	7.27755e-13
0.2898 	5.76565e-13
0.2905 	4.97514e-13
0.2912 	4.47308e-13
0.2919 	3.97331e-13
0.2926 	3.47372e-13
0.2933 	2.97413e-13
0.294 	2.47454e-13
0.2947 	1.97495e-13
0.2954 	1.66216e-13
0.2961 	1.48945e-13
0.2968 	1.31761e-13
0.2975 	1.146e-13
0.2982 	9.74403e-14
0.2989 	8.02802e-14
0.2996 	6.31201e-14
0.3003 	5.09046e-14
0.301 	4.52805e-14
0.3017 	3.96851e-14
0.3024 	3.41055e-14
0.3031 	2.8526e-14
0.3038 	2.29464e-14
0.3045 	1.73669e-14
0.3052 	1.29418e-14
0.3059 	1.1402e-14
0.3066 	9.86914e-15
0.3073 	8.34325e-15
0.308 	6.81736e-15
0.3087 	5.29146e-15
0.3094 	3.76557e-15
0.3101 	2.41436e-15
0.3108 	2.11032e-15
0.3115 	1.80733e-15
0.3122 	1.50625e-15
0.3129 	1.20516e-15
0.3136 	9.0408e-16
0.3143 	6.02997e-16
0.315 	3.01976e-16
0.3157 	2.63169e-16
0.3164 	2.24466e-16
0.3171 	1.86071e-16
0.3178 	1.47677e-16
0.3185 	1.09283e-16
0.3192 	7.08882e-17
0.3199 	3.24938e-17
0.3206 	2.40318e-17
0.3213 	2.05529e-17
0.322 	1.71079e-17
0.3227 	1.36629e-17
0.3234 	1.02179e-17
0.3241 	6.77284e-18
0.3248 	3.32782e-18
0.3255 	2.12846e-18
0.3262 	1.82642e-18
0.3269 	1.52747e-18
0.3276 	1.22877e-18
0.3283 	9.30068e-19
0.329 	6.31365e-19
0.3297 	3.32662e-19
0.3304 	1.89249e-19
0.3311 	1.62205e-19
0.3318 	1.35411e-19
0.3325 	1.08685e-19
0.3332 	8.19585e-20
0.3339 	5.52324e-20
0.3346 	2.85063e-20
0.3353 	1.24656e-20
0.336 	1.06592e-20
0.3367 	8.86711e-21
0.3374 	7.08308e-21
0.3381 	5.29904e-21
0.3388 	3.51501e-21
0.3395 	1.73098e-21
0.3402 	4.38899e-22
0.3409 	3.75228e-22
0.3416 	3.11971e-22
0.3423 	2.49127e-22
0.343 	1.86283e-22
0.3437 	1.23439e-22
0.3444 	6.05944e-23
0.3451 	6.60908e-24
0.3458 	5.66089e-24
0.3465 	4.71724e-24
0.3472 	3.7818e-24
0.3479 	2.84635e-24
0.3486 	1.9109e-24
0.3493 	9.75454e-25
0.35 	4.02685e-26
0.3507 	3.45825e-26
0.3514 	2.8918e-26
0.3521 	2.33149e-26
0.3528 	1.77118e-26
0.3535 	1.21087e-26
0.3542 	6.50566e-27
0.3549 	9.02584e-28
0.3556 	9.11448e-29
0.3563 	7.65012e-29
0.357 	6.20477e-29
0.3577 	4.75942e-29
0.3584 	3.31407e-29
0.3591 	1.86872e-29
0.3598 	4.23372e-30
0.3605 	9.72782e-32
0.3612 	8.19695e-32
0.3619 	6.68628e-32
0.3626 	5.17716e-32
0.3633 	3.66804e-32
0.364 	2.15892e-32
0.3647 	6.49796e-33
0.3654 	3.17615e-35
0.3661 	2.68706e-35
0.3668 	2.20357e-35
0.3675 	1.72161e-35
0.3682 	1.23965e-35
0.3689 	7.57687e-36
0.3696 	2.75724e-36
0.3703 	4.25421e-39
0.371 	3.61315e-39
0.3717 	2.97814e-39
0.3724 	2.34649e-39
0.3731 	1.71484e-39
0.3738 	1.08319e-39
0.3745 	4.51536e-40
0.3752 	5.12883e-43
0.3759 	4.3722e-43
0.3766 	3.62116e-43
0.3773 	2.8757e-43
0.378 	2.13025e-43
0.3787 	1.38479e-43
0.3794 	6.3934e-44
0.3801 	5.75505e-47
0.3808 	4.92352e-47
0.3815 	4.0964e-47
0.3822 	3.27719e-47
0.3829 	2.45799e-47
0.3836 	1.63879e-47
0.3843 	8.19587e-48
0.385 	6.14161e-51
0.3857 	5.27115e-51
0.3864 	4.40462e-51
0.3871 	3.54824e-51
0.3878 	2.69186e-51
0.3885 	1.83548e-51
0.3892 	9.79098e-52
0.3899 	1.22718e-52
0.3906 	5.42883e-55
0.3913 	4.55508e-55
0.392 	3.69338e-55
0.3927 	2.83167e-55
0.3934 	1.96997e-55
0.3941 	1.10826e-55
0.3948 	2.46561e-56
0.3955 	5.40136e-59
0.3962 	4.55055e-59
0.3969 	3.7116e-59
0.3976 	2.87357e-59
0.3983 	2.03554e-59
0.399 	1.19751e-59
0.3997 	3.59482e-60
0.4004 	5.14032e-63
0.4011 	4.34537e-63
0.4018 	3.56273e-63
0.4025 	2.78344e-63
0.4032 	2.00416e-63
0.4039 	1.22487e-63
0.4046 	4.45591e-64
0.4053 	4.72513e-67
0.406 	4.01063e-67
0.4067 	3.30529e-67
0.4074 	2.60502e-67
0.4081 	1.90475e-67
0.4088 	1.20449e-67
0.4095 	5.04219e-68
0.4102 	4.24052e-70
0.4109 	4.30333e-70
0.4116 	4.42912e-70
0.4123 	4.61788e-70
0.413 	4.80665e-70
0.4137 	4.99542e-70
0.4144 	5.18418e-70
0.4151 	5.4032e-70
0.4158 	5.80208e-70
0.4165 	6.34036e-70
0.4172 	7.12956e-70
0.4179 	7.91877e-70
0.4186 	8.70797e-70
0.4193 	9.49718e-70
0.42 	4.96388e-69
0.4207 	1.10453e-69
0.4214 	1.19616e-69
0.4221 	1.34589e-69
0.4228 	1.49562e-69
0.4235 	1.64535e-69
0.4242 	1.79507e-69
0.4249 	1.9448e-69
0.4256 	2.10444e-69
0.4263 	2.27691e-69
0.427 	2.59658e-69
0.4277 	2.91625e-69
0.4284 	3.23591e-69
0.4291 	3.55558e-69
0.4298 	3.87525e-69
0.4305 	4.28737e-69
0.4312 	4.73607e-69
0.4319 	5.59812e-69
0.4326 	6.49196e-69
0.4333 	7.38581e-69
0.434 	8.27965e-69
0.4347 	9.17349e-69
0.4354 	1.0252e-68
0.4361 	1.14674e-68
0.4368 	1.36378e-68
0.4375 	1.60687e-68
0.4382 	1.84997e-68
0.4389 	2.09306e-68
0.4396 	2.33615e-68
0.4403 	2.68316e-68
0.441 	3.1683e-68
0.4417 	3.96559e-68
0.4424 	4.93629e-68
0.4431 	5.90699e-68
0.4438 	6.8777e-68
0.4445 	7.8484e-68
0.4452 	8.68163e-68
0.4459 	9.16652e-68
0.4466 	9.89405e-68
0.4473 	1.08642e-67
0.448 	1.18344e-67
0.4487 	1.28046e-67
0.4494 	1.37748e-67
0.4501 	1.45378e-67
0.4508 	1.40561e-67
0.4515 	1.34024e-67
0.4522 	1.24392e-67
0.4529 	1.14759e-67
0.4536 	1.05127e-67
0.4543 	9.54949e-68
0.455 	9.95915e-68
0.4557 	7.95609e-68
0.4564 	7.19334e-68
0.4571 	5.93707e-68
0.4578 	4.68079e-68
0.4585 	3.42451e-68
0.4592 	2.16824e-68
0.4599 	9.11962e-69
0.4606 	6.82456e-69
0.4613 	6.1978e-69
0.462 	5.02786e-69
0.4627 	3.85791e-69
0.4634 	2.68797e-69
0.4641 	1.51803e-69
0.4648 	3.48084e-70
0.4655 	1.33177e-71
0.4662 	1.21881e-71
0.4669 	1.00083e-71
0.4676 	7.74773e-72
0.4683 	5.48715e-72
0.469 	3.22656e-72
0.4697 	9.65982e-73
0.4704 	-1.91392e-75
0.4711 	-1.3534e-75
0.4718 	-1.27413e-75
0.4725 	-1.32611e-75
0.4732 	-1.37809e-75
0.4739 	-1.43006e-75
0.4746 	-1.48204e-75
0.4753 	-1.35551e-75
0.476 	-9.9078e-76
0.4767 	-8.60518e-76
0.4774 	-8.60518e-76
0.4781 	-8.60518e-76
0.4788 	-8.60518e-76
0.4795 	-8.60517e-76
0.4802 	-7.98909e-76
0.4809 	-5.8308e-76
0.4816 	-4.75164e-76
0.4823 	-4.75163e-76
0.483 	-4.75161e-76
0.4837 	-4.7516e-76
0.4844 	-4.75158e-76
0.4851 	-4.57561e-76
0.4858 	-3.34165e-76
0.4865 	-2.54839e-76
0.4872 	-2.54838e-76
0.4879 	-2.54837e-76
0.4886 	-2.54836e-76
0.4893 	-2.54836e-76
0.49 	-2.54845e-76
0.4907 	-1.8599e-76
0.4914 	-1.31884e-76
0.4921 	-1.31884e-76
0.4928 	-1.31883e-76
0.4935 	-1.31883e-76
0.4942 	-1.31883e-76
0.4949 	-1.31883e-76
0.4956 	-9.98165e-77
0.4963 	-6.50675e-77
0.497 	-6.50675e-77
0.4977 	-6.50675e-77
0.4984 	-6.50675e-77
0.4991 	-6.50675e-77
0.4998 	-6.50675e-77
0.5005 	-5.1193e-77
0.5012 	-3.17615e-77
0.5019 	-3.03735e-77
0.5026 	-3.03735e-77
0.5033 	-3.03735e-77
0.504 	-3.03735e-77
0.5047 	-3.03735e-77
0.5054 	-2.49437e-77
0.5061 	-1.54371e-77
0.5068 	-1.34e-77
0.5075 	-1.34e-77
0.5082 	-1.34e-77
0.5089 	-1.34001e-77
0.5096 	-1.34001e-77
0.5103 	-1.15293e-77
0.511 	-7.16131e-78
0.5117 	-5.60134e-78
0.5124 	-5.60135e-78
0.5131 	-5.60137e-78
0.5138 	-5.60138e-78
0.5145 	-5.60139e-78
0.5152 	-5.06191e-78
0.5159 	-3.17197e-78
0.5166 	-2.22697e-78
0.5173 	-2.22692e-78
0.518 	-2.22687e-78
0.5187 	-2.22682e-78
0.5194 	-2.22677e-78
0.5201 	-2.11639e-78
0.5208 	-1.34264e-78
0.5215 	-8.45217e-79
0.5222 	-8.45186e-79
0.5229 	-8.45156e-79
0.5236 	-8.45126e-79
0.5243 	-8.45095e-79
0.525 	-8.45187e-79
0.5257 	-5.43943e-79
0.5264 	-3.07283e-79
0.5271 	-3.07269e-79
0.5278 	-3.07255e-79
0.5285 	-3.07242e-79
0.5292 	-3.07228e-79
0.5299 	-3.07214e-79
0.5306 	-2.11279e-79
0.5313 	-1.07319e-79
0.532 	-1.07313e-79
0.5327 	-1.07308e-79
0.5334 	-1.07302e-79
0.5341 	-1.07297e-79
0.5348 	-1.07291e-79
0.5355 	-7.88172e-80
0.5362 	-3.89417e-80
0.5369 	-3.60915e-80
0.5376 	-3.60894e-80
0.5383 	-3.60872e-80
0.539 	-3.60851e-80
0.5397 	-3.6083e-80
0.5404 	-2.82864e-80
0.5411 	-1.46379e-80
0.5418 	-1.17126e-80
0.5425 	-1.17119e-80
0.5432 	-1.17111e-80
0.5439 	-1.17103e-80
0.5446 	-1.17095e-80
0.5453 	-9.78164e-81
0.546 	-5.28154e-81
0.5467 	-3.67419e-81
0.5474 	-3.67392e-81
0.5481 	-3.67365e-81
0.5488 	-3.67338e-81
0.5495 	-3.67311e-81
0.5502 	-3.26409e-81
0.5509 	-1.83191e-81
0.5516 	-1.11577e-81
0.5523 	-1.11568e-81
0.553 	-1.11559e-81
0.5537 	-1.1155e-81
0.5544 	-1.11541e-81
0.5551 	-1.05249e-81
0.5558 	-6.11775e-82
0.5565 	-3.28449e-82
0.5572 	-3.2842e-82
0.5579 	-3.28391e-82
0.5586 	-3.28362e-82
0.5593 	-3.28333e-82
0.56 	-3.2835e-82
0.5607 	-1.97013e-82
0.5614 	-9.3828e-83
0.5621 	-9.3819e-83
0.5628 	-9.381e-83
0.5635 	-9.3801e-83
0.5642 	-9.3792e-83
0.5649 	-9.3783e-83
0.5656 	-6.12698e-83
0.5663 	-2.60381e-83
0.567 	-2.60354e-83
0.5677 	-2.60327e-83
0.5684 	-2.603e-83
0.5691 	-2.60273e-83
0.5698 	-2.60246e-83
0.5705 	-1.84261e-83
0.5712 	-7.78564e-84
0.5719 	-7.02488e-84
0.5726 	-7.02409e-84
0.5733 	-7.02331e-84
0.574 	-7.02252e-84
0.5747 	-7.02173e-84
0.5754 	-5.36532e-84
0.5761 	-2.46591e-84
0.5768 	-1.84444e-84
0.5775 	-1.84422e-84
0.5782 	-1.84399e-84
0.5789 	-1.84377e-84
0.5796 	-1.84355e-84
0.5803 	-1.51434e-84
0.581 	-7.46016e-85
0.5817 	-4.71577e-85
0.5824 	-4.71517e-85
0.5831 	-4.71456e-85
0.5838 	-4.71395e-85
0.5845 	-4.71335e-85
0.5852 	-4.14725e-85
0.5859 	-2.16572e-85
0.5866 	-1.17487e-85
0.5873 	-1.17471e-85
0.588 	-1.17455e-85
0.5887 	-1.17439e-85
0.5894 	-1.17423e-85
0.5901 	-1.10311e-85
0.5908 	-6.05373e-86
0.5915 	-2.85387e-86
0.5922 	-2.85345e-86
0.5929 	-2.85303e-86
0.5936 	-2.85262e-86
0.5943 	-2.8522e-86
0.595 	-2.85218e-86
0.5957 	-1.63364e-86
0.5964 	-6.76268e-87
0.5971 	-6.76163e-87
0.5978 	-6.76058e-87
0.5985 	-6.75953e-87
0.5992 	-6.75848e-87
0.5999 	-6.75743e-87
0.6006 	-4.26492e-87
0.6013 	-1.56408e-87
0.602 	-1.56382e-87
0.6027 	-1.56356e-87
0.6034 	-1.56331e-87
0.6041 	-1.56305e-87
0.6048 	-1.56279e-87
0.6055 	-1.07902e-87
0.6062 	-4.01605e-88
0.6069 	-3.53162e-88
0.6076 	-3.531e-88
0.6083 	-3.53038e-88
0.609 	-3.52977e-88
0.6097 	-3.52915e-88
0.6104 	-2.64924e-88
0.6111 	-1.10921e-88
0.6118 	-7.79088e-89
0.6125 	-7.78945e-89
0.6132 	-7.78801e-89
0.6139 	-7.78657e-89
0.6146 	-7.78513e-89
0.6153 	-6.31985e-89
0.616 	-2.90082e-89
0.6167 	-1.67953e-89
0.6174 	-1.67921e-89
0.6181 	-1.67888e-89
0.6188 	-1.67855e-89
0.6195 	-1.67822e-89
0.6202 	-1.4663e-89
0.6209 	-7.24749e-90
0.6216 	-3.53937e-90
0.6223 	-3.53864e-90
0.623 	-3.53791e-90
0.6237 	-3.53718e-90
0.6244 	-3.53646e-90
0.6251 	-3.31167e-90
0.6258 	-1.73985e-90
0.6265 	-7.29345e-91
0.6272 	-7.29186e-91
0.6279 	-7.29028e-91
0.6286 	-7.2887e-91
0.6293 	-7.28711e-91
0.63 	-7.28653e-91
0.6307 	-4.02925e-91
0.6314 	-1.47005e-91
0.6321 	-1.46971e-91
0.6328 	-1.46937e-91
0.6335 	-1.46904e-91
0.6342 	-1.4687e-91
0.6349 	-1.46837e-91
0.6356 	-9.02759e-92
0.6363 	-2.89891e-92
0.637 	-2.89821e-92
0.6377 	-2.89752e-92
0.6384 	-2.89682e-92
0.6391 	-2.89612e-92
0.6398 	-2.89542e-92
0.6405 	-1.9611e-92
0.6412 	-6.52871e-93
0.6419 	-5.59295e-93
0.6426 	-5.59153e-93
0.6433 	-5.59011e-93
0.644 	-5.5887e-93
0.6447 	-5.58728e-93
0.6454 	-4.1375e-93
0.6461 	-1.60038e-93
0.6468 	-1.05649e-93
0.6475 	-1.05621e-93
0.6482 	-1.05593e-93
0.6489 	-1.05565e-93
0.6496 	-1.05536e-93
0.6503 	-8.48946e-94
0.651 	-3.67407e-94
0.6517 	-1.95393e-94
0.6524 	-1.95339e-94
0.6531 	-1.95284e-94
0.6538 	-1.95229e-94
0.6545 	-1.95174e-94
0.6552 	-1.69595e-94
0.6559 	-8.01285e-95
0.6566 	-3.53901e-95
0.6573 	-3.53797e-95
0.658 	-3.53692e-95
0.6587 	-3.53588e-95
0.6594 	-3.53484e-95
0.6601 	-3.30183e-95
0.6608 	-1.67428e-95
0.6615 	-6.27924e-96
0.6622 	-6.27729e-96
0.6629 	-6.27535e-96
0.6636 	-6.2734e-96
0.6643 	-6.27145e-96
0.665 	-6.27036e-96
0.6657 	-3.37033e-96
0.6664 	-1.09178e-96
0.6671 	-1.09142e-96
0.6678 	-1.09106e-96
0.6685 	-1.09071e-96
0.6692 	-1.09035e-96
0.6699 	-1.09e-96
0.6706 	-6.56166e-97
0.6713 	-1.86101e-97
0.672 	-1.86037e-97
0.6727 	-1.85974e-97
0.6734 	-1.8591e-97
0.6741 	-1.85846e-97
0.6748 	-1.85783e-97
0.6755 	-1.23918e-97
0.6762 	-3.73032e-98
0.6769 	-3.11061e-98
0.6776 	-3.10949e-98
0.6783 	-3.10837e-98
0.679 	-3.10725e-98
0.6797 	-3.10614e-98
0.6804 	-2.27552e-98
0.6811 	-8.22162e-99
0.6818 	-5.10577e-99
0.6825 	-5.10384e-99
0.6832 	-5.10191e-99
0.6839 	-5.09999e-99
0.6846 	-5.09806e-99
0.6853 	-4.07183e-99
0.686 	-1.67853e-99
0.6867 	-8.23563e-100
0.6874 	-8.23237e-100
0.6881 	-8.22911e-100
0.6888 	-8.22585e-100
0.6895 	-8.22259e-100
0.6902 	-7.11501e-100
0.6909 	-3.24334e-100
0.6916 	-1.30724e-100
0.6923 	-1.3067e-100
0.693 	-1.30616e-100
0.6937 	-1.30562e-100
0.6944 	-1.30507e-100
0.6951 	-1.22867e-100
0.6958 	-6.96216e-101
0.6965 	-3.53895e-101
0.6972 	-3.53818e-101
0.6979 	-3.53742e-101
0.6986 	-3.53666e-101
0.6993 	-3.5359e-101
0.7 	-3.53561e-101
