0 	1
0.0007 	1
0.0014 	1
0.0021 	1
0.0028 	1
0.0035 	1
0.0042 	1
0.0049 	1
0.0056 	1
0.0063 	1
0.007 	1
0.0077 	1
0.0084 	1
0.0091 	1
0.0098 	1
0.0105 	1
0.0112 	1
0.0119 	1
0.0126 	1
0.0133 	1
0.014 	1
0.0147 	1
0.0154 	1
0.0161 	1
0.0168 	1
0.0175 	1
0.0182 	1
0.0189 	1
0.0196 	1
0.0203 	1
0.021 	1
0.0217 	1
0.0224 	1
0.0231 	1
0.0238 	1
0.0245 	1
0.0252 	1
0.0259 	1
0.0266 	1
0.0273 	1
0.028 	1
0.0287 	1
0.0294 	1
0.0301 	1
0.0308 	1
0.0315 	1
0.0322 	1
0.0329 	1
0.0336 	1
0.0343 	1
0.035 	1
0.0357 	1
0.0364 	1
0.0371 	1
0.0378 	1
0.0385 	1
0.0392 	1
0.0399 	1
0.0406 	1
0.0413 	1
0.042 	1
0.0427 	1
0.0434 	1
0.0441 	1
0.0448 	1
0.0455 	1
0.0462 	1
0.0469 	1
0.0476 	1
0.0483 	1
0.049 	1
0.0497 	1
0.0504 	1
0.0511 	1
0.0518 	1
0.0525 	1
0.0532 	1
0.0539 	1
0.0546 	1
0.0553 	1
0.056 	1
0.0567 	1
0.0574 	1
0.0581 	1
0.0588 	1
0.0595 	1
0.0602 	1
0.0609 	1
0.0616 	1
0.0623 	1
0.063 	1
0.0637 	1
0.0644 	1
0.0651 	1
0.0658 	1
0.0665 	1
0.0672 	1
0.0679 	1
0.0686 	1
0.0693 	1
0.07 	1
0.0707 	1
0.0714 	1
0.0721 	1
0.0728 	1
0.0735 	1
0.0742 	1
0.0749 	1
0.0756 	1
0.0763 	1
0.077 	1
0.0777 	1
0.0784 	1
0.0791 	1
0.0798 	1
0.0805 	1
0.0812 	1
0.0819 	1
0.0826 	1
0.0833 	1
0.084 	1
0.0847 	1
0.0854 	1
0.0861 	1
0.0868 	1
0.0875 	1
0.0882 	1
0.0889 	1
0.0896 	1
0.0903 	1
0.091 	1
0.0917 	1
0.0924 	1
0.0931 	1
0.0938 	1
0.0945 	1
0.0952 	1
0.0959 	1
0.0966 	1
0.0973 	1
0.098 	1
0.0987 	1
0.0994 	1
0.1001 	1
0.1008 	1
0.1015 	1
0.1022 	1
0.1029 	1
0.1036 	1
0.1043 	1
0.105 	1
0.1057 	1
0.1064 	1
0.1071 	1
0.1078 	1
0.1085 	1
0.1092 	1
0.1099 	1
0.1106 	1
0.1113 	1
0.112 	1
0.1127 	1
0.1134 	1
0.1141 	1
0.1148 	1
0.1155 	1
0.1162 	1
0.1169 	1
0.1176 	1
0.1183 	1
0.119 	1
0.1197 	1
0.1204 	1
0.1211 	1
0.1218 	1
0.1225 	1
0.1232 	1
0.1239 	1
0.1246 	1
0.1253 	1
0.126 	1
0.1267 	1
0.1274 	1
0.1281 	1
0.1288 	1
0.1295 	1
0.1302 	1
0.1309 	1
0.1316 	1
0.1323 	1
0.133 	1
0.1337 	1
0.1344 	1
0.1351 	1
0.1358 	1
0.1365 	1
0.1372 	1
0.1379 	1
0.1386 	1
0.1393 	1
0.14 	1
0.1407 	1
0.1414 	1
0.1421 	1
0.1428 	1
0.1435 	1
0.1442 	1
0.1449 	1
0.1456 	1
0.1463 	1
0.147 	1
0.1477 	1
0.1484 	1
0.1491 	1
0.1498 	1
0.1505 	1
0.1512 	1
0.1519 	1
0.1526 	1
0.1533 	1
0.154 	1
0.1547 	1
0.1554 	1
0.1561 	1
0.1568 	1
0.1575 	1
0.1582 	1
0.1589 	1
0.1596 	1
0.1603 	1
0.161 	1
0.1617 	1
0.1624 	1
0.1631 	1
0.1638 	1
0.1645 	1
0.1652 	1
0.1659 	1
0.1666 	1
0.1673 	1
0.168 	1
0.1687 	1
0.1694 	1
0.1701 	1
0.1708 	1
0.1715 	1
0.1722 	1
0.1729 	1
0.1736 	1
0.1743 	1
0.175 	1
0.1757 	1
0.1764 	1
0.1771 	1
0.1778 	1
0.1785 	1
0.1792 	1
0.1799 	1
0.1806 	1
0.1813 	1
0.182 	1
0.1827 	1
0.1834 	1
0.1841 	1
0.1848 	1
0.1855 	1
0.1862 	1
0.1869 	1
0.1876 	1
0.1883 	1
0.189 	1
0.1897 	1
0.1904 	1
0.1911 	1
0.1918 	1
0.1925 	1
0.1932 	1
0.1939 	1
0.1946 	1
0.1953 	1
0.196 	1
0.1967 	1
0.1974 	1
0.1981 	1
0.1988 	1
0.1995 	1
0.2002 	1
0.2009 	1
0.2016 	1
0.2023 	1
0.203 	1
0.2037 	1
0.2044 	1
0.2051 	0.999996
0.2058 	0.99997
0.2065 	0.999944
0.2072 	0.999918
0.2079 	0.999893
0.2086 	0.999867
0.2093 	0.999841
0.21 	0.999815
0.2107 	0.99795
0.2114 	0.996084
0.2121 	0.994219
0.2128 	0.992354
0.2135 	0.990489
0.2142 	0.988623
0.2149 	0.986758
0.2156 	0.966343
0.2163 	0.942834
0.217 	0.919326
0.2177 	0.895818
0.2184 	0.872309
0.2191 	0.848801
0.2198 	0.825293
0.2205 	0.774421
0.2212 	0.712605
0.2219 	0.650788
0.2226 	0.588971
0.2233 	0.527154
0.224 	0.465337
0.2247 	0.403521
0.2254 	0.350606
0.2261 	0.304375
0.2268 	0.258143
0.2275 	0.211912
0.2282 	0.16568
0.2289 	0.119448
0.2296 	0.0732165
0.2303 	0.0440978
0.231 	0.0377919
0.2317 	0.031486
0.2324 	0.02518
0.2331 	0.018874
0.2338 	0.012568
0.2345 	0.006262
0.2352 	0.00169134
0.2359 	0.0014577
0.2366 	0.00122405
0.2373 	0.000990405
0.238 	0.000756758
0.2387 	0.000523112
0.2394 	0.000289466
0.2401 	8.75171e-05
0.2408 	7.56541e-05
0.2415 	6.37913e-05
0.2422 	5.19288e-05
0.2429 	4.00663e-05
0.2436 	2.82037e-05
0.2443 	1.63412e-05
0.245 	4.47942e-06
0.2457 	3.88124e-06
0.2464 	3.28311e-06
0.2471 	2.68503e-06
0.2478 	2.08694e-06
0.2485 	1.48886e-06
0.2492 	8.9078e-07
0.2499 	2.92698e-07
0.2506 	1.83493e-07
0.2513 	1.55726e-07
0.252 	1.27964e-07
0.2527 	1.00203e-07
0.2534 	7.24415e-08
0.2541 	4.46801e-08
0.2548 	1.69187e-08
0.2555 	8.12851e-09
0.2562 	6.92437e-09
0.2569 	5.72077e-09
0.2576 	4.51721e-09
0.2583 	3.31364e-09
0.259 	2.11008e-09
0.2597 	9.06517e-10
0.2604 	3.61527e-10
0.2611 	3.10327e-10
0.2618 	2.59159e-10
0.2625 	2.08e-10
0.2632 	1.5684e-10
0.2639 	1.05681e-10
0.2646 	5.45214e-11
0.2653 	2.40129e-11
0.266 	2.10314e-11
0.2667 	1.8052e-11
0.2674 	1.50737e-11
0.2681 	1.20955e-11
0.2688 	9.11719e-12
0.2695 	6.13891e-12
0.2702 	3.88709e-12
0.2709 	3.45088e-12
0.2716 	3.01495e-12
0.2723 	2.57929e-12
0.273 	2.14364e-12
0.2737 	1.70798e-12
0.2744 	1.27233e-12
0.2751 	8.85969e-13
0.2758 	7.95254e-13
0.2765 	7.04573e-13
0.2772 	6.13953e-13
0.2779 	5.23334e-13
0.2786 	4.32714e-13
0.2793 	3.42095e-13
0.28 	2.51479e-13
0.2807 	2.27493e-13
0.2814 	2.03508e-13
0.2821 	1.79526e-13
0.2828 	1.55544e-13
0.2835 	1.31561e-13
0.2842 	1.07579e-13
0.2849 	8.35968e-14
0.2856 	7.32603e-14
0.2863 	6.51971e-14
0.287 	5.71303e-14
0.2877 	4.90635e-14
0.2884 	4.09967e-14
0.2891 	3.29299e-14
0.2898 	2.48631e-14
0.2905 	2.07909e-14
0.2912 	1.83164e-14
0.2919 	1.58408e-14
0.2926 	1.33651e-14
0.2933 	1.08894e-14
0.294 	8.41376e-15
0.2947 	5.93809e-15
0.2954 	4.55605e-15
0.2961 	3.99405e-15
0.2968 	3.43192e-15
0.2975 	2.86974e-15
0.2982 	2.30756e-15
0.2989 	1.74538e-15
0.2996 	1.18321e-15
0.3003 	8.18775e-16
0.301 	7.17943e-16
0.3017 	6.17072e-16
0.3024 	5.16178e-16
0.3031 	4.15285e-16
0.3038 	3.14392e-16
0.3045 	2.13499e-16
0.3052 	1.36636e-16
0.3059 	1.19833e-16
0.3066 	1.03019e-16
0.3073 	8.61968e-17
0.308 	6.93743e-17
0.3087 	5.25517e-17
0.3094 	3.57292e-17
0.3101 	2.0937e-17
0.3108 	1.83209e-17
0.3115 	1.57033e-17
0.3122 	1.30831e-17
0.3129 	1.0463e-17
0.3136 	7.84287e-18
0.3143 	5.22274e-18
0.315 	2.60278e-18
0.3157 	2.27305e-18
0.3164 	1.94321e-18
0.3171 	1.61288e-18
0.3178 	1.28255e-18
0.3185 	9.52214e-19
0.3192 	6.21881e-19
0.3199 	2.91548e-19
0.3206 	2.1724e-19
0.3213 	1.85573e-19
0.322 	1.53832e-19
0.3227 	1.2209e-19
0.3234 	9.03493e-20
0.3241 	5.86081e-20
0.3248 	2.68669e-20
0.3255 	1.61187e-20
0.3262 	1.37646e-20
0.3269 	1.14033e-20
0.3276 	9.04148e-21
0.3283 	6.67962e-21
0.329 	4.31777e-21
0.3297 	1.95592e-21
0.3304 	8.71232e-22
0.3311 	7.44114e-22
0.3318 	6.16561e-22
0.3325 	4.8889e-22
0.3332 	3.61219e-22
0.3339 	2.33548e-22
0.3346 	1.05878e-22
0.3353 	3.10025e-23
0.336 	2.64981e-23
0.3367 	2.19768e-23
0.3374 	1.74462e-23
0.3381 	1.29155e-23
0.3388 	8.38487e-24
0.3395 	3.85421e-24
0.3402 	5.93982e-25
0.3409 	5.08486e-25
0.3416 	4.2264e-25
0.3423 	3.36444e-25
0.343 	2.50248e-25
0.3437 	1.64051e-25
0.3444 	7.78553e-26
0.3451 	3.90174e-27
0.3458 	3.35027e-27
0.3465 	2.79631e-27
0.3472 	2.23786e-27
0.3479 	1.67941e-27
0.3486 	1.12096e-27
0.3493 	5.62511e-28
0.35 	4.11158e-30
0.3507 	3.54432e-30
0.3514 	2.97471e-30
0.3521 	2.39636e-30
0.3528 	1.81801e-30
0.3535 	1.23965e-30
0.3542 	6.61304e-31
0.3549 	8.29522e-32
0.3556 	3.39211e-34
0.3563 	2.86362e-34
0.357 	2.32189e-34
0.3577 	1.78015e-34
0.3584 	1.23842e-34
0.3591 	6.96689e-35
0.3598 	1.54956e-35
0.3605 	2.04217e-38
0.3612 	1.7314e-38
0.3619 	1.41296e-38
0.3626 	1.09393e-38
0.3633 	7.74895e-39
0.364 	4.55862e-39
0.3647 	1.3683e-39
0.3654 	1.21481e-42
0.3661 	1.03385e-42
0.3668 	8.49136e-43
0.3675 	6.634e-43
0.3682 	4.77663e-43
0.3689 	2.91927e-43
0.3696 	1.06191e-43
0.3703 	6.93263e-47
0.371 	5.92176e-47
0.3717 	4.89348e-47
0.3724 	3.85553e-47
0.3731 	2.81758e-47
0.3738 	1.77963e-47
0.3745 	7.41681e-48
0.3752 	3.73693e-51
0.3759 	3.20348e-51
0.3766 	2.66267e-51
0.3773 	2.1145e-51
0.378 	1.56633e-51
0.3787 	1.01817e-51
0.3794 	4.69998e-52
0.3801 	1.89738e-55
0.3808 	1.63212e-55
0.3815 	1.36416e-55
0.3822 	1.09134e-55
0.3829 	8.18521e-56
0.3836 	5.45702e-56
0.3843 	2.72883e-56
0.385 	9.11769e-60
0.3857 	7.86858e-60
0.3864 	6.61172e-60
0.3871 	5.32617e-60
0.3878 	4.04061e-60
0.3885 	2.75505e-60
0.3892 	1.46949e-60
0.3899 	1.83934e-61
0.3906 	3.61999e-64
0.3913 	3.05719e-64
0.392 	2.47883e-64
0.3927 	1.90046e-64
0.3934 	1.3221e-64
0.3941 	7.43732e-65
0.3948 	1.65367e-65
0.3955 	1.60252e-68
0.3962 	1.35936e-68
0.3969 	1.10939e-68
0.3976 	8.58894e-69
0.3983 	6.08397e-69
0.399 	3.57901e-69
0.3997 	1.07405e-69
0.4004 	6.87656e-73
0.4011 	5.85541e-73
0.4018 	4.80992e-73
0.4025 	3.75779e-73
0.4032 	2.70567e-73
0.4039 	1.65354e-73
0.4046 	6.01414e-74
0.4053 	2.87504e-77
0.406 	2.45698e-77
0.4067 	2.03076e-77
0.4074 	1.60001e-77
0.4081 	1.16926e-77
0.4088 	7.38507e-78
0.4095 	3.07757e-78
0.4102 	1.17453e-81
0.4109 	1.0072e-81
0.4116 	8.37345e-82
0.4123 	6.64957e-82
0.413 	4.92568e-82
0.4137 	3.2018e-82
0.4144 	1.47792e-82
0.4151 	4.69356e-86
0.4158 	4.03816e-86
0.4165 	3.37572e-86
0.4172 	2.7006e-86
0.4179 	2.02548e-86
0.4186 	1.35036e-86
0.4193 	6.75235e-87
0.42 	1.83442e-90
0.4207 	1.58323e-90
0.4214 	1.33045e-90
0.4221 	1.07176e-90
0.4228 	8.1307e-91
0.4235 	5.54379e-91
0.4242 	2.95688e-91
0.4249 	3.69976e-92
0.4256 	6.06621e-95
0.4263 	5.12295e-95
0.427 	4.15376e-95
0.4277 	3.18457e-95
0.4284 	2.21538e-95
0.4291 	1.24619e-95
0.4298 	2.77002e-96
0.4305 	1.78481e-99
0.4312 	1.58842e-99
0.4319 	1.24483e-99
0.4326 	8.89915e-100
0.4333 	5.35001e-100
0.434 	1.80087e-100
0.4347 	-1.74828e-100
0.4354 	-2.74098e-100
0.4361 	-1.81685e-100
0.4368 	-1.61883e-100
0.4375 	-1.61884e-100
0.4382 	-1.61886e-100
0.4389 	-1.61887e-100
0.4396 	-1.61888e-100
0.4403 	-1.41447e-100
0.441 	-9.3737e-101
0.4417 	-7.66937e-101
0.4424 	-7.66875e-101
0.4431 	-7.66812e-101
0.4438 	-7.6675e-101
0.4445 	-7.66688e-101
0.4452 	-6.99724e-101
0.4459 	-4.65418e-101
0.4466 	-3.48251e-101
0.4473 	-3.48223e-101
0.448 	-3.48195e-101
0.4487 	-3.48167e-101
0.4494 	-3.48139e-101
0.4501 	-3.32424e-101
0.4508 	-2.22509e-101
0.4515 	-1.51844e-101
0.4522 	-1.51832e-101
0.4529 	-1.51819e-101
0.4536 	-1.51807e-101
0.4543 	-1.51795e-101
0.455 	-1.51792e-101
0.4557 	-1.02429e-101
0.4564 	-6.36457e-102
0.4571 	-6.36405e-102
0.4578 	-6.36353e-102
0.4585 	-6.36301e-102
0.4592 	-6.3625e-102
0.4599 	-6.36198e-102
0.4606 	-4.54051e-102
0.4613 	-2.56707e-102
0.462 	-2.56686e-102
0.4627 	-2.56665e-102
0.4634 	-2.56644e-102
0.4641 	-2.56622e-102
0.4648 	-2.56601e-102
0.4655 	-1.93851e-102
0.4662 	-1.05997e-102
0.4669 	-9.97136e-103
0.4676 	-9.97052e-103
0.4683 	-9.96968e-103
0.469 	-9.96884e-103
0.4697 	-9.968e-103
0.4704 	-7.97315e-103
0.4711 	-4.48213e-103
0.4718 	-3.7338e-103
0.4725 	-3.73348e-103
0.4732 	-3.73315e-103
0.4739 	-3.73283e-103
0.4746 	-3.7325e-103
0.4753 	-3.16038e-103
0.476 	-1.82552e-103
0.4767 	-1.34871e-103
0.4774 	-1.34859e-103
0.4781 	-1.34847e-103
0.4788 	-1.34835e-103
0.4795 	-1.34823e-103
0.4802 	-1.20774e-103
0.4809 	-7.16118e-104
0.4816 	-4.70288e-104
0.4823 	-4.70244e-104
0.483 	-4.70201e-104
0.4837 	-4.70157e-104
0.4844 	-4.70113e-104
0.4851 	-4.45161e-104
0.4858 	-2.70618e-104
0.4865 	-1.58407e-104
0.4872 	-1.58391e-104
0.4879 	-1.58376e-104
0.4886 	-1.58361e-104
0.4893 	-1.58345e-104
0.49 	-1.5834e-104
0.4907 	-9.85497e-105
0.4914 	-5.1573e-105
0.4921 	-5.15678e-105
0.4928 	-5.15626e-105
0.4935 	-5.15574e-105
0.4942 	-5.15522e-105
0.4949 	-5.1547e-105
0.4956 	-3.46002e-105
0.4963 	-1.62393e-105
0.497 	-1.62376e-105
0.4977 	-1.62359e-105
0.4984 	-1.62342e-105
0.4991 	-1.62325e-105
0.4998 	-1.62308e-105
0.5005 	-1.17179e-105
0.5012 	-5.39957e-106
0.5019 	-4.94775e-106
0.5026 	-4.94721e-106
0.5033 	-4.94666e-106
0.504 	-4.94611e-106
0.5047 	-4.94557e-106
0.5054 	-3.83013e-106
0.5061 	-1.87815e-106
0.5068 	-1.45973e-106
0.5075 	-1.45956e-106
0.5082 	-1.45939e-106
0.5089 	-1.45922e-106
0.5096 	-1.45905e-106
0.5103 	-1.20899e-106
0.511 	-6.25594e-107
0.5117 	-4.17205e-107
0.5124 	-4.17154e-107
0.5131 	-4.17103e-107
0.5138 	-4.17052e-107
0.5145 	-4.17001e-107
0.5152 	-3.6876e-107
0.5159 	-1.99975e-107
0.5166 	-1.15576e-107
0.5173 	-1.15561e-107
0.518 	-1.15546e-107
0.5187 	-1.15531e-107
0.5194 	-1.15516e-107
0.5201 	-1.08752e-107
0.5208 	-6.14557e-108
0.5215 	-3.10492e-108
0.5222 	-3.1045e-108
0.5229 	-3.10408e-108
0.5236 	-3.10366e-108
0.5243 	-3.10324e-108
0.525 	-3.10302e-108
0.5257 	-1.81854e-108
0.5264 	-8.09316e-109
0.5271 	-8.09201e-109
0.5278 	-8.09086e-109
0.5285 	-8.08971e-109
0.5292 	-8.08856e-109
0.5299 	-8.08741e-109
0.5306 	-5.18854e-109
0.5313 	-2.04782e-109
0.532 	-2.04751e-109
0.5327 	-2.04721e-109
0.5334 	-2.0469e-109
0.5341 	-2.0466e-109
0.5348 	-2.04629e-109
0.5355 	-1.42908e-109
0.5362 	-5.64973e-110
0.5369 	-5.03178e-110
0.5376 	-5.03099e-110
0.5383 	-5.0302e-110
0.539 	-5.02941e-110
0.5397 	-5.02862e-110
0.5404 	-3.80396e-110
0.5411 	-1.66096e-110
0.5418 	-1.20159e-110
0.5425 	-1.20139e-110
0.5432 	-1.20119e-110
0.5439 	-1.20099e-110
0.5446 	-1.20079e-110
0.5453 	-9.79521e-111
0.546 	-4.63341e-111
0.5467 	-2.7896e-111
0.5474 	-2.78912e-111
0.5481 	-2.78864e-111
0.5488 	-2.78815e-111
0.5495 	-2.78767e-111
0.5502 	-2.44227e-111
0.5509 	-1.23409e-111
0.5516 	-6.29936e-112
0.5523 	-6.29822e-112
0.553 	-6.29707e-112
0.5537 	-6.29593e-112
0.5544 	-6.29479e-112
0.5551 	-5.90135e-112
0.5558 	-3.1519e-112
0.5565 	-1.3843e-112
0.5572 	-1.38404e-112
0.5579 	-1.38377e-112
0.5586 	-1.38351e-112
0.5593 	-1.38325e-112
0.56 	-1.38308e-112
0.5607 	-7.74412e-113
0.5614 	-2.96177e-113
0.5621 	-2.96118e-113
0.5628 	-2.96059e-113
0.5635 	-2.96e-113
0.5642 	-2.95942e-113
0.5649 	-2.95883e-113
0.5656 	-1.83492e-113
0.5663 	-6.1726e-114
0.567 	-6.17132e-114
0.5677 	-6.17004e-114
0.5684 	-6.16876e-114
0.5691 	-6.16748e-114
0.5698 	-6.16619e-114
0.5705 	-4.20115e-114
0.5712 	-1.45015e-114
0.5719 	-1.2534e-114
0.5726 	-1.25313e-114
0.5733 	-1.25285e-114
0.574 	-1.25258e-114
0.5747 	-1.25231e-114
0.5754 	-9.30976e-115
0.5761 	-3.68725e-115
0.5768 	-2.48199e-115
0.5775 	-2.48143e-115
0.5782 	-2.48087e-115
0.5789 	-2.48031e-115
0.5796 	-2.47975e-115
0.5803 	-1.99955e-115
0.581 	-8.79514e-116
0.5817 	-4.79431e-116
0.5824 	-4.79318e-116
0.5831 	-4.79205e-116
0.5838 	-4.79093e-116
0.5845 	-4.7898e-116
0.5852 	-4.16759e-116
0.5859 	-1.99179e-116
0.5866 	-9.03772e-117
0.5873 	-9.03551e-117
0.588 	-9.0333e-117
0.5887 	-9.03109e-117
0.5894 	-9.02888e-117
0.5901 	-8.43837e-117
0.5908 	-4.31456e-117
0.5915 	-1.66339e-117
0.5922 	-1.66297e-117
0.5929 	-1.66254e-117
0.5936 	-1.66212e-117
0.5943 	-1.6617e-117
0.595 	-1.66139e-117
0.5957 	-8.98481e-118
0.5964 	-2.99054e-118
0.5971 	-2.98975e-118
0.5978 	-2.98896e-118
0.5985 	-2.98818e-118
0.5992 	-2.98739e-118
0.5999 	-2.9866e-118
0.6006 	-1.80527e-118
0.6013 	-5.25429e-119
0.602 	-5.25285e-119
0.6027 	-5.25142e-119
0.6034 	-5.24998e-119
0.6041 	-5.24855e-119
0.6048 	-5.24711e-119
0.6055 	-3.50922e-119
0.6062 	-1.07635e-119
0.6069 	-9.02334e-120
0.6076 	-9.02079e-120
0.6083 	-9.01823e-120
0.609 	-9.01568e-120
0.6097 	-9.01312e-120
0.6104 	-6.61383e-120
0.6111 	-2.41609e-120
0.6118 	-1.51623e-120
0.6125 	-1.51578e-120
0.6132 	-1.51534e-120
0.6139 	-1.51489e-120
0.6146 	-1.51445e-120
0.6153 	-1.2107e-120
0.616 	-5.02358e-121
0.6167 	-2.49329e-121
0.6174 	-2.49253e-121
0.6181 	-2.49178e-121
0.6188 	-2.49102e-121
0.6195 	-2.49027e-121
0.6202 	-2.15573e-121
0.6209 	-9.86243e-122
0.6216 	-4.01437e-122
0.6223 	-4.01311e-122
0.623 	-4.01185e-122
0.6237 	-4.0106e-122
0.6244 	-4.00934e-122
0.6251 	-3.73847e-122
0.6258 	-1.8483e-122
0.6265 	-6.33111e-123
0.6272 	-6.32906e-123
0.6279 	-6.32702e-123
0.6286 	-6.32497e-123
0.6293 	-6.32292e-123
0.63 	-6.3213e-123
0.6307 	-3.32936e-123
0.6314 	-9.78533e-124
0.6321 	-9.78206e-124
0.6328 	-9.77879e-124
0.6335 	-9.77552e-124
0.6342 	-9.77225e-124
0.6349 	-9.76899e-124
0.6356 	-5.79169e-124
0.6363 	-1.48281e-124
0.637 	-1.4823e-124
0.6377 	-1.48179e-124
0.6384 	-1.48127e-124
0.6391 	-1.48076e-124
0.6398 	-1.48025e-124
0.6405 	-9.76265e-125
0.6412 	-2.70771e-125
0.6419 	-2.20305e-125
0.6426 	-2.20226e-125
0.6433 	-2.20147e-125
0.644 	-2.20069e-125
0.6447 	-2.1999e-125
0.6454 	-1.59863e-125
0.6461 	-5.46771e-126
0.6468 	-3.21279e-126
0.6475 	-3.21159e-126
0.6482 	-3.21039e-126
0.6489 	-3.20919e-126
0.6496 	-3.20799e-126
0.6503 	-2.54809e-126
0.651 	-1.00948e-126
0.6517 	-4.59858e-127
0.6524 	-4.59678e-127
0.6531 	-4.59498e-127
0.6538 	-4.59318e-127
0.6545 	-4.59137e-127
0.6552 	-3.95931e-127
0.6559 	-1.75065e-127
0.6566 	-6.46182e-128
0.6573 	-6.45915e-128
0.658 	-6.45649e-128
0.6587 	-6.45382e-128
0.6594 	-6.45115e-128
0.6601 	-6.00465e-128
0.6608 	-2.89244e-128
0.6615 	-8.91602e-129
0.6622 	-8.91215e-129
0.6629 	-8.90827e-129
0.6636 	-8.9044e-129
0.6643 	-8.90052e-129
0.665 	-8.89726e-129
0.6657 	-4.59128e-129
0.6664 	-1.20795e-129
0.6671 	-1.2074e-129
0.6678 	-1.20685e-129
0.6685 	-1.2063e-129
0.6692 	-1.20575e-129
0.6699 	-1.20519e-129
0.6706 	-7.03777e-130
0.6713 	-1.60577e-130
0.672 	-1.605e-130
0.6727 	-1.60423e-130
0.6734 	-1.60346e-130
0.6741 	-1.60269e-130
0.6748 	-1.60192e-130
0.6755 	-1.04456e-130
0.6762 	-2.64439e-131
0.6769 	-2.08618e-131
0.6776 	-2.08513e-131
0.6783 	-2.08408e-131
0.679 	-2.08303e-131
0.6797 	-2.08198e-131
0.6804 	-1.49933e-131
0.6811 	-4.80266e-132
0.6818 	-2.61785e-132
0.6825 	-2.61646e-132
0.6832 	-2.61507e-132
0.6839 	-2.61367e-132
0.6846 	-2.61228e-132
0.6853 	-2.05816e-132
0.686 	-7.667e-133
0.6867 	-3.0535e-133
0.6874 	-3.05173e-133
0.6881 	-3.04995e-133
0.6888 	-3.04818e-133
0.6895 	-3.0464e-133
0.6902 	-2.6064e-133
0.6909 	-1.07015e-133
0.6916 	-3.01921e-134
0.6923 	-3.01711e-134
0.693 	-3.01502e-134
0.6937 	-3.01292e-134
0.6944 	-3.01082e-134
0.6951 	-2.80057e-134
0.6958 	-1.34015e-134
0.6965 	-4.0124e-135
0.6972 	-4.01045e-135
0.6979 	-4.00849e-135
0.6986 	-4.00654e-135
0.6993 	-4.00459e-135
0.7 	-4.00291e-135
