0 	1
0.0007 	1
0.0021 	1
0.0028 	1
0.0042 	1
0.0049 	1
0.0056 	1
0.0063 	1
0.007 	1
0.0077 	1
0.0084 	1
0.0091 	1
0.0098 	1
0.0105 	1
0.0112 	1
0.0119 	1
0.0126 	1
0.0133 	1
0.014 	1
0.0147 	1
0.0154 	1
0.0161 	1
0.0168 	1
0.0175 	1
0.0182 	1
0.0189 	1
0.0196 	1
0.0203 	1
0.021 	1
0.0217 	1
0.0224 	1
0.0231 	1
0.0238 	1
0.0245 	1
0.0252 	1
0.0259 	1
0.0266 	1
0.028 	1
0.0287 	1
0.0294 	1
0.0301 	1
0.0308 	1
0.0315 	1
0.0322 	1
0.0329 	1
0.0336 	1
0.0343 	1
0.035 	1
0.0357 	1
0.0364 	1
0.0371 	1
0.0378 	1
0.0385 	1
0.0392 	1
0.0399 	1
0.0406 	1
0.0413 	1
0.042 	1
0.0427 	1
0.0434 	1
0.0441 	1
0.0448 	1
0.0455 	1
0.0462 	1
0.0469 	1
0.0476 	1
0.0483 	1
0.049 	1
0.0497 	1
0.0504 	1
0.0511 	1
0.0518 	1
0.0532 	1
0.0539 	1
0.0546 	1
0.0553 	1
0.056 	1
0.0567 	1
0.0574 	1
0.0581 	1
0.0588 	1
0.0595 	1
0.0602 	1
0.0609 	1
0.0616 	1
0.0623 	1
0.063 	1
0.0644 	1
0.0651 	1
0.0658 	1
0.0665 	1
0.0672 	1
0.0679 	1
0.0686 	1
0.0693 	1
0.07 	1
0.0707 	1
0.0714 	1
0.0721 	1
0.0728 	1
0.0735 	1
0.0749 	1
0.0756 	1
0.0763 	1
0.077 	1
0.0777 	1
0.0784 	1
0.0791 	1
0.0798 	1
0.0805 	1
0.0812 	1
0.0819 	1
0.0833 	1
0.084 	1
0.0847 	1
0.0854 	1
0.0861 	1
0.0868 	1
0.0875 	1
0.0882 	1
0.0889 	1
0.0896 	1
0.0903 	1
0.091 	1
0.0917 	1
0.0924 	1
0.0931 	1
0.0938 	1
0.0945 	1
0.0952 	1
0.0959 	1
0.0966 	1
0.0973 	1
0.098 	1
0.0987 	1
0.1001 	1
0.1008 	1
0.1015 	1
0.1022 	1
0.1029 	1
0.1036 	1
0.1043 	1
0.105 	1
0.1057 	1
0.1064 	1
0.1071 	1
0.1078 	1
0.1085 	1
0.1092 	1
0.1099 	1
0.1106 	1
0.1113 	1
0.112 	1
0.1127 	1
0.1134 	1
0.1141 	1
0.1148 	1
0.1155 	1
0.1169 	1
0.1176 	1
0.1183 	1
0.119 	1
0.1197 	1
0.1204 	1
0.1211 	1
0.1218 	1
0.1225 	1
0.1239 	1
0.1246 	1
0.1253 	1
0.126 	1
0.1267 	1
0.1274 	1
0.1281 	1
0.1288 	1
0.1295 	1
0.1302 	1
0.1309 	1
0.1316 	1
0.1323 	1
0.133 	1
0.1337 	1
0.1344 	1
0.1351 	1
0.1358 	1
0.1365 	1
0.1379 	1
0.1386 	1
0.1393 	1
0.14 	1
0.1407 	1
0.1414 	1
0.1421 	1
0.1428 	1
0.1435 	1
0.1442 	1
0.1449 	1
0.1456 	1
0.1463 	1
0.147 	1
0.1477 	1
0.1484 	1
0.1491 	1
0.1498 	1
0.1505 	1
0.1512 	1
0.1519 	1
0.1526 	1
0.1533 	1
0.154 	1
0.1547 	1
0.1554 	1
0.1561 	1
0.1568 	1
0.1575 	1
0.1582 	1
0.1596 	1
0.1603 	1
0.161 	1
0.1617 	1
0.1624 	1
0.1631 	1
0.1638 	1
0.1645 	1
0.1652 	1
0.1659 	1
0.1666 	1
0.1673 	1
0.168 	1
0.1687 	1
0.1701 	1
0.1708 	1
0.1715 	1
0.1722 	1
0.1729 	1
0.1736 	1
0.1743 	1
0.175 	1
0.1757 	1
0.1764 	1
0.1771 	1
0.1778 	1
0.1785 	1
0.1792 	1
0.1799 	1
0.1806 	1
0.1813 	1
0.182 	1
0.1827 	1
0.1834 	1
0.1841 	1
0.1848 	1
0.1855 	1
0.1862 	1
0.1869 	1
0.1876 	1
0.1883 	1
0.189 	1
0.1897 	1
0.1904 	1
0.1911 	1
0.1918 	1
0.1925 	1
0.1932 	1
0.1939 	1
0.1946 	1
0.1953 	1
0.196 	1
0.1967 	1
0.1974 	1
0.1981 	1
0.1988 	1
0.1995 	1
0.2002 	1
0.2009 	1
0.2016 	1
0.2023 	1
0.203 	1
0.2037 	1
0.2044 	1
0.2051 	1
0.2058 	1
0.2065 	1
0.2072 	1
0.2079 	1
0.2086 	1
0.2093 	1
0.21 	1
0.2107 	1
0.2114 	1
0.2121 	1
0.2128 	1
0.2135 	1
0.2142 	1
0.2149 	1
0.2156 	1
0.2163 	1
0.217 	1
0.2177 	1
0.2184 	1
0.2191 	1
0.2198 	1
0.2205 	1
0.2212 	1
0.2219 	1
0.2226 	1
0.2233 	1
0.224 	1
0.2247 	1
0.2254 	1
0.2261 	0.999999
0.2268 	0.999999
0.2275 	0.999999
0.2282 	0.999998
0.2289 	0.999998
0.2296 	0.999998
0.2303 	0.99995
0.231 	0.99984
0.2317 	0.99973
0.2324 	0.999619
0.2331 	0.999509
0.2338 	0.999399
0.2345 	0.999288
0.2352 	0.99786
0.2359 	0.993135
0.2366 	0.98841
0.2373 	0.983686
0.238 	0.978961
0.2387 	0.974236
0.2394 	0.969511
0.2401 	0.960184
0.2408 	0.923242
0.2415 	0.8863
0.2422 	0.849357
0.2429 	0.812415
0.2436 	0.775472
0.2443 	0.738529
0.245 	0.701587
0.2457 	0.638737
0.2471 	0.513037
0.2478 	0.450187
0.2485 	0.387337
0.2492 	0.324487
0.2499 	0.261637
0.2506 	0.224541
0.2513 	0.191738
0.252 	0.158934
0.2527 	0.126131
0.2534 	0.0933277
0.2541 	0.0605245
0.2548 	0.0277212
0.2555 	0.0166425
0.2562 	0.0142537
0.2569 	0.0118649
0.2576 	0.00947621
0.2583 	0.00708748
0.259 	0.00469875
0.2597 	0.00231003
0.2604 	0.00121165
0.2611 	0.00108103
0.2618 	0.000950418
0.2625 	0.000819807
0.2632 	0.000689195
0.2639 	0.000558583
0.2646 	0.000427971
0.2653 	0.000339615
0.266 	0.0003076
0.2667 	0.000275587
0.2674 	0.000243574
0.2681 	0.000211561
0.2688 	0.000179548
0.2695 	0.000147535
0.2702 	0.000121254
0.2709 	0.000109302
0.2716 	9.73508e-05
0.2723 	8.53999e-05
0.273 	7.34491e-05
0.2737 	6.14982e-05
0.2744 	4.95473e-05
0.2751 	3.87483e-05
0.2758 	3.48602e-05
0.2765 	3.09723e-05
0.2772 	2.70845e-05
0.2779 	2.31968e-05
0.2786 	1.9309e-05
0.2793 	1.54212e-05
0.28 	1.15335e-05
0.2807 	1.04e-05
0.2814 	9.26648e-06
0.2821 	8.13308e-06
0.2828 	6.99968e-06
0.2835 	5.86628e-06
0.2842 	4.73288e-06
0.2849 	3.59948e-06
0.2856 	3.15083e-06
0.2863 	2.8163e-06
0.287 	2.48181e-06
0.2877 	2.14732e-06
0.2884 	1.81283e-06
0.2891 	1.47834e-06
0.2898 	1.14385e-06
0.2905 	9.74758e-07
0.2912 	8.71828e-07
0.2919 	7.6891e-07
0.2926 	6.65993e-07
0.2933 	5.63076e-07
0.294 	4.60159e-07
0.2947 	3.57242e-07
0.2954 	2.94914e-07
0.2961 	2.63029e-07
0.2968 	2.31147e-07
0.2975 	1.99266e-07
0.2982 	1.67385e-07
0.2989 	1.35504e-07
0.2996 	1.03623e-07
0.3003 	8.14297e-08
0.301 	7.21545e-08
0.3017 	6.28803e-08
0.3024 	5.36067e-08
0.3031 	4.43331e-08
0.3038 	3.50595e-08
0.3045 	2.57859e-08
0.3052 	1.85172e-08
0.3059 	1.62604e-08
0.3066 	1.40038e-08
0.3073 	1.17475e-08
0.308 	9.49116e-09
0.3087 	7.23483e-09
0.3094 	4.97849e-09
0.3101 	2.98926e-09
0.3108 	2.60259e-09
0.3115 	2.21596e-09
0.3122 	1.82937e-09
0.3129 	1.44277e-09
0.3136 	1.05618e-09
0.3143 	6.69593e-10
0.315 	2.83002e-10
0.3157 	2.44966e-10
0.3164 	2.06931e-10
0.3171 	1.68899e-10
0.3178 	1.30867e-10
0.3185 	9.28355e-11
0.3192 	5.48037e-11
0.3199 	1.67719e-11
0.3206 	9.99406e-12
0.3213 	8.42522e-12
0.322 	6.85625e-12
0.3227 	5.28728e-12
0.3234 	3.71832e-12
0.3241 	2.14935e-12
0.3248 	5.80382e-13
0.3255 	1.18999e-13
0.3262 	1.0065e-13
0.3269 	8.22931e-14
0.3276 	6.39358e-14
0.329 	2.72213e-14
0.3297 	8.86397e-15
0.3304 	9.64505e-16
0.3311 	9.08409e-16
0.3318 	8.52293e-16
0.3325 	7.96171e-16
0.3332 	7.4005e-16
0.3339 	6.83928e-16
0.3346 	6.27807e-16
0.3353 	5.86118e-16
0.336 	5.63673e-16
0.3367 	5.41235e-16
0.3374 	5.18801e-16
0.3381 	4.96366e-16
0.3388 	4.73932e-16
0.3395 	4.51498e-16
0.3402 	4.26609e-16
0.3409 	3.95586e-16
0.3416 	3.64558e-16
0.3423 	3.33523e-16
0.343 	3.02488e-16
0.3437 	2.71454e-16
0.3444 	2.40419e-16
0.3451 	2.10545e-16
0.3458 	1.87639e-16
0.3465 	1.64719e-16
0.3472 	1.41778e-16
0.3479 	1.18836e-16
0.3486 	9.58945e-17
0.3493 	7.29529e-17
0.35 	5.00112e-17
0.3507 	4.34747e-17
0.3514 	3.69338e-17
0.3521 	3.03769e-17
0.3528 	2.38199e-17
0.3535 	1.72629e-17
0.3542 	1.0706e-17
0.3549 	4.14901e-18
0.3556 	2.8311e-18
0.3563 	2.38619e-18
0.357 	1.93888e-18
0.3577 	1.49157e-18
0.3584 	1.04426e-18
0.3591 	5.96956e-19
0.3598 	1.49648e-19
0.3605 	1.96777e-20
0.3612 	1.66429e-20
0.3619 	1.35798e-20
0.3626 	1.05146e-20
0.3633 	7.44937e-21
0.364 	4.38413e-21
0.3647 	1.3189e-21
0.3654 	4.81307e-24
0.3661 	4.09038e-24
0.3668 	3.35831e-24
0.3675 	2.62368e-24
0.3682 	1.88905e-24
0.3689 	1.15443e-24
0.3696 	4.19803e-25
0.3703 	1.52391e-29
0.371 	1.30042e-29
0.3717 	1.07413e-29
0.3724 	8.46285e-30
0.3731 	6.1844e-30
0.3738 	3.90595e-30
0.3745 	1.6275e-30
0.3752 	3.6972e-35
0.3759 	3.16674e-35
0.3766 	2.6307e-35
0.3773 	2.08909e-35
0.378 	1.54747e-35
0.3787 	1.00586e-35
0.3794 	4.64246e-36
0.3801 	5.92129e-41
0.3808 	5.09026e-41
0.3815 	4.25229e-41
0.3822 	3.40184e-41
0.3829 	2.55138e-41
0.3836 	1.70092e-41
0.3843 	8.50464e-42
0.385 	6.94814e-47
0.3857 	5.99333e-47
0.3864 	5.03341e-47
0.3871 	4.05469e-47
0.3878 	3.07597e-47
0.3885 	2.09726e-47
0.3892 	1.11854e-47
0.3899 	1.39824e-48
0.3906 	6.6047e-53
0.3913 	5.5743e-53
0.392 	4.5197e-53
0.3927 	3.46511e-53
0.3934 	2.41051e-53
0.3941 	1.35592e-53
0.3948 	3.01322e-54
0.3955 	7.92122e-59
0.3962 	6.71427e-59
0.3969 	5.4792e-59
0.3976 	4.24196e-59
0.3983 	3.00473e-59
0.399 	1.76749e-59
0.3997 	5.30255e-60
0.4004 	9.74045e-65
0.4011 	8.28928e-65
0.4018 	6.80817e-65
0.4025 	5.31888e-65
0.4032 	3.8296e-65
0.4039 	2.34032e-65
0.4046 	8.51032e-66
0.4053 	1.25048e-70
0.406 	1.06806e-70
0.4067 	8.82562e-71
0.4074 	6.95352e-71
0.4081 	5.08143e-71
0.4088 	3.20933e-71
0.4095 	1.33723e-71
0.4102 	1.81057e-76
0.4109 	1.55183e-76
0.4116 	1.2897e-76
0.4123 	1.02417e-76
0.413 	7.58647e-77
0.4137 	4.93121e-77
0.4144 	2.27596e-77
0.4151 	2.94433e-82
0.4158 	2.53204e-82
0.4165 	2.11586e-82
0.4172 	1.69269e-82
0.4179 	1.26952e-82
0.4186 	8.46348e-83
0.4193 	4.23176e-83
0.42 	5.31013e-88
0.4207 	4.58085e-88
0.4214 	3.84753e-88
0.4221 	3.0994e-88
0.4228 	2.35127e-88
0.4235 	1.60314e-88
0.4242 	8.55016e-89
0.4249 	1.06886e-89
0.4256 	9.29479e-94
0.4263 	7.84519e-94
0.427 	6.36097e-94
0.4277 	4.87675e-94
0.4284 	3.39253e-94
0.4291 	1.90831e-94
0.4298 	4.24086e-95
0.4305 	2.10673e-99
0.4312 	1.7858e-99
0.4319 	1.45731e-99
0.4326 	1.12824e-99
0.4333 	7.99174e-100
0.434 	4.70105e-100
0.4347 	1.41035e-100
0.4354 	5.2795e-105
0.4361 	4.49202e-105
0.4368 	3.6892e-105
0.4375 	2.88219e-105
0.4382 	2.07518e-105
0.4389 	1.26817e-105
0.4396 	4.61163e-106
0.4403 	1.44444e-110
0.441 	1.23343e-110
0.4417 	1.0191e-110
0.4424 	8.02926e-111
0.4431 	5.86755e-111
0.4438 	3.70584e-111
0.4445 	1.54412e-111
0.4452 	4.33703e-116
0.4459 	3.71598e-116
0.4466 	3.08761e-116
0.4473 	2.45193e-116
0.448 	1.81625e-116
0.4487 	1.18057e-116
0.4494 	5.44885e-117
0.4501 	1.44547e-121
0.4508 	1.24252e-121
0.4515 	1.03791e-121
0.4522 	8.30332e-122
0.4529 	6.2275e-122
0.4536 	4.15169e-122
0.4543 	2.07588e-122
0.455 	6.18523e-127
0.4557 	5.3327e-127
0.4564 	4.47634e-127
0.4571 	3.60595e-127
0.4578 	2.73556e-127
0.4585 	1.86518e-127
0.4599 	1.24401e-128
0.4606 	5.29853e-132
0.4613 	4.46607e-132
0.462 	3.62117e-132
0.4627 	2.77626e-132
0.4634 	1.93136e-132
0.4641 	1.08645e-132
0.4648 	2.41549e-133
0.4655 	1.33509e-136
0.4662 	1.12969e-136
0.4669 	9.21758e-137
0.4676 	7.1363e-137
0.469 	2.97374e-137
0.4697 	8.92462e-138
0.4704 	4.47309e-141
0.4711 	3.79897e-141
0.4718 	3.11855e-141
0.4725 	2.4364e-141
0.4732 	1.75426e-141
0.4739 	1.07212e-141
0.4746 	3.89973e-142
0.4753 	1.66276e-145
0.476 	1.41735e-145
0.4767 	1.17031e-145
0.4774 	9.2238e-146
0.4781 	6.74447e-146
0.4788 	4.26514e-146
0.4795 	1.78581e-146
0.4802 	1.46209e-148
0.4809 	1.37861e-148
0.4816 	1.29507e-148
0.4823 	1.21149e-148
0.483 	1.12791e-148
0.4837 	1.04432e-148
0.4844 	9.60739e-149
0.4851 	8.81746e-149
0.4858 	8.30299e-149
0.4865 	7.78848e-149
0.4879 	6.75932e-149
0.4886 	6.24474e-149
0.4893 	5.73016e-149
0.49 	5.21558e-149
0.4907 	4.88526e-149
0.4914 	4.55491e-149
0.4921 	4.22448e-149
0.4928 	3.89405e-149
0.4935 	3.56362e-149
0.4942 	3.23318e-149
0.4949 	2.90275e-149
0.4956 	2.68983e-149
0.4963 	2.49648e-149
0.497 	2.30307e-149
0.4977 	2.10966e-149
0.4984 	1.91625e-149
0.4991 	1.72283e-149
0.4998 	1.52942e-149
0.5005 	1.39812e-149
0.5012 	1.29167e-149
0.5019 	1.18517e-149
0.5026 	1.07867e-149
0.5033 	9.72174e-150
0.504 	8.65675e-150
0.5047 	7.59175e-150
0.5054 	6.8234e-150
0.5061 	6.27752e-150
0.5068 	5.73144e-150
0.5075 	5.1853e-150
0.5082 	4.63916e-150
0.5089 	4.09302e-150
0.5096 	3.54688e-150
0.5103 	3.12323e-150
0.511 	2.8629e-150
0.5117 	2.60247e-150
0.5124 	2.342e-150
0.5131 	2.08153e-150
0.5138 	1.82106e-150
0.5145 	1.56058e-150
0.5152 	1.34151e-150
0.5159 	1.22596e-150
0.5166 	1.11036e-150
0.5173 	9.94736e-151
0.518 	8.79109e-151
0.5187 	7.63482e-151
0.5194 	6.47855e-151
0.5201 	5.41904e-151
0.5208 	4.94013e-151
0.5215 	4.4611e-151
0.5222 	3.98188e-151
0.5229 	3.50266e-151
0.5236 	3.02343e-151
0.5243 	2.54421e-151
0.525 	2.06499e-151
0.5257 	1.87888e-151
0.5264 	1.69275e-151
0.5271 	1.50652e-151
0.5278 	1.32028e-151
0.5285 	1.13405e-151
0.5292 	9.47814e-152
0.5299 	7.61581e-152
0.5306 	6.76595e-152
0.5313 	6.0848e-152
0.532 	5.40317e-152
0.5327 	4.72155e-152
0.5334 	4.03992e-152
0.5341 	3.3583e-152
0.5348 	2.67668e-152
0.5355 	2.31357e-152
0.5362 	2.07786e-152
0.5369 	1.84198e-152
0.5376 	1.60608e-152
0.5383 	1.37019e-152
0.539 	1.1343e-152
0.5397 	8.98402e-153
0.5404 	7.53086e-153
0.5411 	6.75703e-153
0.5418 	5.98268e-153
0.5425 	5.20819e-153
0.5432 	4.4337e-153
0.5439 	3.65921e-153
0.5446 	2.88473e-153
0.5453 	2.33858e-153
0.546 	2.0969e-153
0.5467 	1.85507e-153
0.5474 	1.61317e-153
0.5481 	1.37127e-153
0.5488 	1.12937e-153
0.5495 	8.87473e-154
0.5502 	6.94121e-154
0.5509 	6.22143e-154
0.5516 	5.50131e-154
0.5523 	4.78084e-154
0.553 	4.06038e-154
0.5537 	3.33992e-154
0.5544 	2.61945e-154
0.5551 	1.97265e-154
0.5558 	1.76781e-154
0.5565 	1.56289e-154
0.5572 	1.35784e-154
0.5579 	1.1528e-154
0.5586 	9.47751e-155
0.5593 	7.42705e-155
0.56 	5.37658e-155
0.5607 	4.81844e-155
0.5614 	4.26017e-155
0.5621 	3.70145e-155
0.5628 	3.14273e-155
0.5635 	2.58401e-155
0.5642 	2.02529e-155
0.5649 	1.46656e-155
0.5656 	1.26172e-155
0.5663 	1.11585e-155
0.567 	9.69826e-156
0.5677 	8.23805e-156
0.5684 	6.77784e-156
0.5691 	5.31762e-156
0.5698 	3.85741e-156
0.5705 	3.17862e-156
0.5712 	2.81239e-156
0.5719 	2.44577e-156
0.5726 	2.07913e-156
0.5733 	1.71249e-156
0.5747 	9.79205e-157
0.5754 	7.71511e-157
0.5761 	6.83027e-157
0.5768 	5.94462e-157
0.5775 	5.05875e-157
0.5782 	4.17288e-157
0.5789 	3.28701e-157
0.5796 	2.40113e-157
0.5803 	1.80662e-157
0.581 	1.60059e-157
0.5817 	1.39439e-157
0.5824 	1.18811e-157
0.5831 	9.8182e-158
0.5838 	7.75535e-158
0.5845 	5.6925e-158
0.5852 	4.08673e-158
0.5859 	3.6237e-158
0.5866 	3.16037e-158
0.5873 	2.69675e-158
0.588 	2.23312e-158
0.5887 	1.7695e-158
0.5901 	8.94125e-159
0.5908 	7.93555e-159
0.5922 	5.92237e-159
0.5929 	4.91535e-159
0.5943 	2.90133e-159
0.595 	1.89432e-159
0.5957 	1.68294e-159
0.5964 	1.4715e-159
0.5971 	1.25983e-159
0.5978 	1.04817e-159
0.5985 	8.36506e-160
0.5992 	6.24841e-160
0.5999 	4.13177e-160
0.6006 	3.46041e-160
0.6013 	3.02989e-160
0.602 	2.59882e-160
0.6027 	2.16774e-160
0.6034 	1.73666e-160
0.6048 	8.74513e-161
0.6055 	6.90603e-161
0.6062 	6.05561e-161
0.6069 	5.20405e-161
0.6083 	3.50075e-161
0.609 	2.6491e-161
0.6097 	1.79745e-161
0.6104 	1.33922e-161
0.6111 	1.17604e-161
0.6118 	1.01268e-161
0.6125 	8.49268e-162
0.6132 	6.85854e-162
0.6139 	5.2244e-162
0.6146 	3.59026e-162
0.6153 	2.52601e-162
0.616 	2.22162e-162
0.6167 	1.91692e-162
0.6174 	1.61206e-162
0.6181 	1.3072e-162
0.6195 	6.97471e-163
0.6209 	4.08646e-163
0.6216 	3.53328e-163
0.6223 	2.97967e-163
0.623 	2.42607e-163
0.6244 	1.31885e-163
0.6251 	8.30363e-164
0.6258 	7.32575e-164
0.6265 	6.3473e-164
0.6272 	5.36784e-164
0.6279 	4.38838e-164
0.6286 	3.40891e-164
0.6293 	2.42945e-164
0.63 	1.44999e-164
0.6307 	1.28125e-164
0.6314 	1.11244e-164
0.6321 	9.4342e-165
0.6328 	7.74396e-165
0.6335 	6.05373e-165
0.6342 	4.36349e-165
0.6349 	2.67325e-165
0.6356 	2.18813e-165
0.6363 	1.90382e-165
0.637 	1.61906e-165
0.6377 	1.33431e-165
0.6384 	1.04955e-165
0.6391 	7.64795e-166
0.6398 	4.80039e-166
0.6405 	3.65251e-166
0.6412 	3.18452e-166
0.6419 	2.71576e-166
0.6426 	2.24695e-166
0.6433 	1.77813e-166
0.644 	1.30932e-166
0.6447 	8.40505e-167
0.6454 	5.96514e-167
0.6461 	5.21141e-167
0.6468 	4.45663e-167
0.6475 	3.70155e-167
0.6482 	2.94647e-167
0.6489 	2.1914e-167
0.6496 	1.43632e-167
0.6503 	9.53912e-168
0.651 	8.35063e-168
0.6517 	7.16073e-168
0.6524 	5.97005e-168
0.6531 	4.77938e-168
0.6538 	3.5887e-168
0.6545 	2.39803e-168
0.6552 	1.49507e-168
0.6559 	1.31142e-168
0.6566 	1.12759e-168
0.6573 	9.43588e-169
0.658 	7.59588e-169
0.6587 	5.75587e-169
0.6594 	3.91587e-169
0.6601 	2.29895e-169
0.6608 	2.02054e-169
0.6615 	1.74193e-169
0.6622 	1.46298e-169
0.6629 	1.18402e-169
0.6636 	9.05069e-170
0.6643 	6.26116e-170
0.665 	3.47163e-170
0.6657 	3.05713e-170
0.6664 	2.64246e-170
0.6671 	2.22715e-170
0.6678 	1.81183e-170
0.6685 	1.39652e-170
0.6692 	9.81202e-171
0.6699 	5.65886e-171
0.6706 	4.54573e-171
0.6713 	3.93918e-171
0.672 	3.33149e-171
0.6727 	2.72379e-171
0.6734 	2.1161e-171
0.6741 	1.50841e-171
0.6748 	9.00711e-172
0.6755 	6.64735e-172
0.6762 	5.77447e-172
0.6769 	4.89989e-172
0.6776 	4.02518e-172
0.6783 	3.15047e-172
0.679 	2.27576e-172
0.6797 	1.40105e-172
0.6804 	9.55514e-173
0.6811 	8.3186e-173
0.6818 	7.07997e-173
0.6825 	5.84077e-173
0.6832 	4.60157e-173
0.6839 	3.36237e-173
0.6846 	2.12316e-173
0.6853 	1.34137e-173
0.686 	1.16946e-173
0.6867 	9.973e-174
0.6874 	8.25006e-174
0.6881 	6.52712e-174
0.6888 	4.80418e-174
0.6895 	3.08124e-174
0.6902 	1.78496e-174
0.6909 	1.5553e-174
0.6916 	1.32539e-174
0.6923 	1.09522e-174
0.693 	8.65047e-175
0.6937 	6.34875e-175
0.6944 	4.04702e-175
0.6951 	2.03608e-175
0.6958 	1.76986e-175
0.6965 	1.50568e-175
0.6972 	1.24517e-175
0.6979 	9.84662e-176
0.6986 	7.24154e-176
0.7 	2.03137e-176
