0 	1
0.0007 	1
0.0014 	1
0.0021 	1
0.0028 	1
0.0035 	1
0.0042 	1
0.0049 	1
0.0056 	1
0.0063 	1
0.007 	1
0.0077 	1
0.0084 	1
0.0091 	1
0.0098 	1
0.0105 	1
0.0112 	1
0.0119 	1
0.0126 	1
0.0133 	1
0.014 	1
0.0147 	1
0.0154 	1
0.0161 	1
0.0168 	1
0.0175 	1
0.0182 	1
0.0189 	1
0.0196 	1
0.0203 	1
0.021 	1
0.0217 	1
0.0224 	1
0.0231 	1
0.0238 	1
0.0245 	1
0.0252 	1
0.0259 	1
0.0266 	1
0.0273 	1
0.028 	1
0.0287 	1
0.0294 	1
0.0301 	1
0.0308 	1
0.0315 	1
0.0322 	1
0.0329 	1
0.0336 	1
0.0343 	1
0.035 	1
0.0357 	1
0.0364 	1
0.0371 	1
0.0378 	1
0.0385 	1
0.0392 	1
0.0399 	1
0.0406 	1
0.0413 	1
0.042 	1
0.0427 	1
0.0434 	1
0.0441 	1
0.0448 	1
0.0455 	1
0.0462 	1
0.0469 	1
0.0476 	1
0.0483 	1
0.049 	1
0.0497 	1
0.0504 	1
0.0511 	1
0.0518 	1
0.0525 	1
0.0532 	1
0.0539 	1
0.0546 	1
0.0553 	1
0.056 	1
0.0567 	1
0.0574 	1
0.0581 	1
0.0588 	1
0.0595 	1
0.0602 	1
0.0609 	1
0.0616 	1
0.0623 	1
0.063 	1
0.0637 	1
0.0644 	1
0.0651 	1
0.0658 	1
0.0665 	1
0.0672 	1
0.0679 	1
0.0686 	1
0.0693 	1
0.07 	1
0.0707 	1
0.0714 	1
0.0721 	1
0.0728 	1
0.0735 	1
0.0742 	1
0.0749 	1
0.0756 	1
0.0763 	1
0.077 	1
0.0777 	1
0.0784 	1
0.0791 	1
0.0798 	1
0.0805 	1
0.0812 	1
0.0819 	1
0.0826 	1
0.0833 	1
0.084 	1
0.0847 	1
0.0854 	1
0.0861 	1
0.0868 	1
0.0875 	1
0.0882 	1
0.0889 	1
0.0896 	1
0.0903 	1
0.091 	1
0.0917 	1
0.0924 	1
0.0931 	1
0.0938 	1
0.0945 	1
0.0952 	1
0.0959 	1
0.0966 	1
0.0973 	1
0.098 	1
0.0987 	1
0.0994 	1
0.1001 	1
0.1008 	1
0.1015 	1
0.1022 	1
0.1029 	1
0.1036 	1
0.1043 	1
0.105 	1
0.1057 	1
0.1064 	1
0.1071 	1
0.1078 	1
0.1085 	1
0.1092 	1
0.1099 	1
0.1106 	1
0.1113 	1
0.112 	1
0.1127 	1
0.1134 	1
0.1141 	1
0.1148 	1
0.1155 	1
0.1162 	1
0.1169 	1
0.1176 	1
0.1183 	1
0.119 	1
0.1197 	1
0.1204 	1
0.1211 	1
0.1218 	1
0.1225 	1
0.1232 	1
0.1239 	1
0.1246 	1
0.1253 	1
0.126 	1
0.1267 	1
0.1274 	1
0.1281 	1
0.1288 	1
0.1295 	1
0.1302 	1
0.1309 	1
0.1316 	1
0.1323 	1
0.133 	1
0.1337 	1
0.1344 	1
0.1351 	1
0.1358 	1
0.1365 	1
0.1372 	1
0.1379 	1
0.1386 	1
0.1393 	1
0.14 	1
0.1407 	1
0.1414 	1
0.1421 	1
0.1428 	1
0.1435 	1
0.1442 	1
0.1449 	1
0.1456 	1
0.1463 	1
0.147 	1
0.1477 	1
0.1484 	1
0.1491 	1
0.1498 	1
0.1505 	1
0.1512 	1
0.1519 	1
0.1526 	1
0.1533 	1
0.154 	1
0.1547 	1
0.1554 	1
0.1561 	1
0.1568 	1
0.1575 	1
0.1582 	1
0.1589 	1
0.1596 	1
0.1603 	1
0.161 	1
0.1617 	1
0.1624 	1
0.1631 	1
0.1638 	1
0.1645 	1
0.1652 	1
0.1659 	1
0.1666 	1
0.1673 	1
0.168 	1
0.1687 	1
0.1694 	1
0.1701 	1
0.1708 	1
0.1715 	1
0.1722 	1
0.1729 	1
0.1736 	1
0.1743 	1
0.175 	1
0.1757 	1
0.1764 	1
0.1771 	1
0.1778 	1
0.1785 	1
0.1792 	1
0.1799 	1
0.1806 	1
0.1813 	1
0.182 	1
0.1827 	1
0.1834 	1
0.1841 	1
0.1848 	1
0.1855 	1
0.1862 	1
0.1869 	1
0.1876 	1
0.1883 	1
0.189 	1
0.1897 	1
0.1904 	1
0.1911 	1
0.1918 	1
0.1925 	1
0.1932 	1
0.1939 	1
0.1946 	1
0.1953 	1
0.196 	1
0.1967 	1
0.1974 	1
0.1981 	1
0.1988 	1
0.1995 	1
0.2002 	1
0.2009 	1
0.2016 	1
0.2023 	1
0.203 	1
0.2037 	1
0.2044 	1
0.2051 	1
0.2058 	1
0.2065 	1
0.2072 	1
0.2079 	1
0.2086 	1
0.2093 	1
0.21 	1
0.2107 	1
0.2114 	1
0.2121 	1
0.2128 	1
0.2135 	1
0.2142 	1
0.2149 	1
0.2156 	1
0.2163 	1
0.217 	1
0.2177 	1
0.2184 	1
0.2191 	1
0.2198 	1
0.2205 	1
0.2212 	1
0.2219 	1
0.2226 	1
0.2233 	1
0.224 	1
0.2247 	1
0.2254 	1
0.2261 	1
0.2268 	0.999999
0.2275 	0.999997
0.2282 	0.999995
0.2289 	0.999993
0.2296 	0.999991
0.2303 	0.999989
0.231 	0.999989
0.2317 	0.999871
0.2324 	0.999515
0.2331 	0.999159
0.2338 	0.998793
0.2345 	0.998297
0.2352 	0.99785
0.2359 	0.997527
0.2366 	0.99463
0.2373 	0.985331
0.238 	0.975954
0.2387 	0.966578
0.2394 	0.952413
0.2401 	0.938114
0.2408 	0.925227
0.2415 	0.902941
0.2422 	0.855928
0.2429 	0.807392
0.2436 	0.758856
0.2443 	0.689618
0.245 	0.614734
0.2457 	0.540619
0.2464 	0.468995
0.2471 	0.408479
0.2478 	0.348838
0.2485 	0.289196
0.2492 	0.237031
0.2499 	0.18902
0.2506 	0.139781
0.2513 	0.0916852
0.252 	0.0663359
0.2527 	0.0452686
0.2534 	0.0242013
0.2541 	0.0125813
0.2548 	0.0104082
0.2555 	0.00770054
0.2562 	0.00477915
0.2569 	0.00311098
0.2576 	0.00213373
0.2583 	0.00115649
0.259 	0.000497684
0.2597 	0.000412048
0.2604 	0.000313448
0.2611 	0.000205126
0.2618 	0.000133105
0.2625 	9.43807e-05
0.2632 	5.56566e-05
0.2639 	2.43511e-05
0.2646 	2.0245e-05
0.2653 	1.56755e-05
0.266 	1.04883e-05
0.2667 	6.5603e-06
0.2674 	4.71699e-06
0.2681 	2.87368e-06
0.2688 	1.14857e-06
0.2695 	9.59813e-07
0.2702 	7.56118e-07
0.2709 	5.1509e-07
0.2716 	3.11869e-07
0.2723 	2.25364e-07
0.273 	1.40823e-07
0.2737 	5.62827e-08
0.2744 	4.25734e-08
0.2751 	3.39726e-08
0.2758 	2.33381e-08
0.2765 	1.39021e-08
0.2772 	9.64251e-09
0.2779 	5.99161e-09
0.2786 	2.34071e-09
0.2793 	1.35185e-09
0.28 	1.08895e-09
0.2807 	7.46655e-10
0.2814 	4.28008e-10
0.2821 	2.77907e-10
0.2828 	1.648e-10
0.2835 	5.16923e-11
0.2842 	1.00598e-11
0.2849 	8.13343e-12
0.2856 	5.73105e-12
0.2863 	3.30854e-12
0.287 	2.10259e-12
0.2877 	1.2694e-12
0.2884 	4.36221e-13
0.2891 	1.78684e-14
0.2898 	1.4324e-14
0.2905 	1.03928e-14
0.2912 	6.30675e-15
0.2919 	4.05941e-15
0.2926 	2.52656e-15
0.2933 	9.93715e-16
0.294 	7.78728e-18
0.2947 	6.26155e-18
0.2954 	4.63225e-18
0.2961 	2.92526e-18
0.2968 	1.84062e-18
0.2975 	1.18133e-18
0.2982 	5.22049e-19
0.2989 	3.88879e-21
0.2996 	3.14742e-21
0.3003 	2.36787e-21
0.301 	1.5374e-21
0.3017 	9.36488e-22
0.3024 	6.16861e-22
0.3031 	2.97234e-22
0.3038 	4.36061e-25
0.3045 	3.54903e-25
0.3052 	2.71074e-25
0.3059 	1.80568e-25
0.3066 	1.07727e-25
0.3073 	7.22666e-26
0.308 	3.73916e-26
0.3087 	2.51669e-27
0.3094 	2.16053e-29
0.3101 	1.67383e-29
0.3108 	1.14086e-29
0.3115 	6.82119e-30
0.3122 	4.55782e-30
0.3129 	2.50013e-30
0.3136 	4.42448e-31
0.3143 	1.31742e-33
0.315 	1.03338e-33
0.3157 	7.19056e-34
0.3164 	4.30986e-34
0.3171 	2.87106e-34
0.3178 	1.6534e-34
0.3185 	4.35747e-35
0.3192 	7.79822e-38
0.3199 	6.16068e-38
0.3206 	4.38542e-38
0.3213 	2.63738e-38
0.322 	1.75473e-38
0.3227 	1.05303e-38
0.3234 	3.5133e-39
0.3241 	4.42065e-42
0.3248 	3.51498e-42
0.3255 	2.55277e-42
0.3262 	1.56795e-42
0.3269 	1.02538e-42
0.3276 	6.37492e-43
0.3283 	2.49607e-43
0.329 	2.4032e-46
0.3297 	1.92225e-46
0.3304 	1.42068e-46
0.3311 	9.03647e-47
0.3318 	5.73916e-47
0.3325 	3.67941e-47
0.3332 	1.61966e-47
0.3339 	1.26265e-50
0.3346 	1.0157e-50
0.3353 	7.62166e-51
0.336 	4.99859e-51
0.3367 	3.10265e-51
0.3374 	2.04343e-51
0.3381 	9.84206e-52
0.3388 	6.44956e-55
0.3395 	5.2167e-55
0.3402 	3.96625e-55
0.3409 	2.67185e-55
0.3416 	1.63679e-55
0.3423 	1.09846e-55
0.343 	5.68317e-56
0.3437 	3.81783e-57
0.3444 	2.61846e-59
0.3451 	2.01357e-59
0.3458 	1.38884e-59
0.3465 	8.5447e-60
0.3472 	5.75023e-60
0.3479 	3.15402e-60
0.3486 	5.57811e-61
0.3493 	1.28716e-63
0.35 	9.99684e-64
0.3507 	7.04135e-64
0.3514 	4.34547e-64
0.3521 	2.93945e-64
0.3528 	1.69271e-64
0.3535 	4.45958e-65
0.3542 	6.20005e-68
0.3549 	4.85393e-68
0.3556 	3.48621e-68
0.3563 	2.15559e-68
0.357 	1.4689e-68
0.3577 	8.81469e-69
0.3584 	2.94034e-69
0.3591 	2.9277e-72
0.3598 	2.30978e-72
0.3605 	1.68727e-72
0.3612 	1.06291e-72
0.3619 	7.18203e-73
0.3626 	4.46504e-73
0.3633 	1.74806e-73
0.364 	1.3574e-76
0.3647 	1.07891e-76
0.3654 	7.99907e-77
0.3661 	5.20512e-77
0.3668 	3.44226e-77
0.3675 	2.2068e-77
0.3682 	9.71347e-78
0.3689 	6.19367e-81
0.3696 	4.95858e-81
0.3703 	3.72489e-81
0.371 	2.49305e-81
0.3717 	1.62146e-81
0.3724 	1.06789e-81
0.3731 	5.1431e-82
0.3738 	2.78857e-85
0.3745 	2.24805e-85
0.3752 	1.70869e-85
0.3759 	1.17221e-85
0.3766 	7.54775e-86
0.3773 	5.07713e-86
0.378 	2.62668e-86
0.3787 	1.76227e-87
0.3794 	1.0073e-89
0.3801 	7.73814e-90
0.3808 	5.42586e-90
0.3815 	3.48671e-90
0.3822 	2.3779e-90
0.3829 	1.30424e-90
0.3836 	2.30582e-91
0.3843 	4.46527e-94
0.385 	3.46393e-94
0.3857 	2.47666e-94
0.3864 	1.58674e-94
0.3871 	1.09891e-94
0.3878 	6.32798e-95
0.3885 	1.66686e-95
0.3892 	1.9583e-98
0.3899 	1.53398e-98
0.3906 	1.11544e-98
0.3913 	7.11856e-99
0.392 	5.01369e-99
0.3927 	3.00858e-99
0.3934 	1.00347e-99
0.3941 	8.49147e-103
0.3948 	6.71326e-103
0.3955 	4.9563e-103
0.3962 	3.20784e-103
0.3969 	2.25786e-103
0.3976 	1.40368e-103
0.3983 	5.49496e-104
0.399 	3.63774e-107
0.3997 	2.90138e-107
0.4004 	2.17192e-107
0.4011 	1.44764e-107
0.4018 	1.00324e-107
0.4025 	6.4316e-108
0.4032 	2.83078e-108
0.4039 	1.5387e-111
0.4046 	1.23751e-111
0.4053 	9.38286e-112
0.406 	6.41677e-112
0.4067 	4.39611e-112
0.4074 	2.89521e-112
0.4081 	1.39432e-112
0.4088 	6.41991e-116
0.4095 	5.20515e-116
0.4102 	3.99461e-116
0.4109 	2.79463e-116
0.4116 	1.89815e-116
0.4123 	1.28095e-116
0.413 	6.62682e-117
0.4137 	4.4415e-118
0.4144 	2.15835e-120
0.4151 	1.67569e-120
0.4158 	1.19626e-120
0.4165 	8.0513e-121
0.4172 	5.5716e-121
0.4179 	3.05584e-121
0.4186 	5.40089e-122
0.4193 	8.81885e-125
0.42 	6.9247e-125
0.4207 	5.03376e-125
0.4214 	3.35594e-125
0.4221 	2.38285e-125
0.4228 	1.37211e-125
0.4235 	3.61369e-126
0.4242 	3.54844e-129
0.4249 	2.81732e-129
0.4256 	2.08214e-129
0.4263 	1.37448e-129
0.427 	1.00196e-129
0.4277 	6.01237e-130
0.4284 	2.00512e-130
0.4291 	1.40586e-133
0.4298 	1.1279e-133
0.4305 	8.46742e-134
0.4312 	5.64302e-134
0.4319 	4.14314e-134
0.4326 	2.57568e-134
0.4333 	1.00822e-134
0.434 	5.47967e-138
0.4347 	4.44008e-138
0.4354 	3.384e-138
0.4361 	2.31556e-138
0.4368 	1.68398e-138
0.4375 	1.07955e-138
0.4382 	4.75119e-139
0.4389 	2.0998e-142
0.4396 	1.7177e-142
0.4403 	1.32872e-142
0.441 	9.30581e-143
0.4417 	6.72596e-143
0.4424 	4.42956e-143
0.4431 	2.13316e-143
0.4438 	8.07571e-147
0.4445 	6.68549e-147
0.4452 	5.2733e-147
0.4459 	3.80622e-147
0.4466 	2.76223e-147
0.4473 	1.90569e-147
0.448 	1.03767e-147
0.4487 	1.69649e-148
0.4494 	9.78519e-149
0.4501 	8.76225e-149
0.4508 	7.93837e-149
0.4515 	7.14794e-149
0.4522 	6.43518e-149
0.4529 	5.72653e-149
0.4536 	5.01787e-149
0.4543 	4.46008e-149
0.455 	3.94343e-149
0.4557 	3.47124e-149
0.4564 	3.02462e-149
0.4571 	2.67574e-149
0.4578 	2.32882e-149
0.4585 	1.9819e-149
0.4592 	1.72531e-149
0.4599 	1.51888e-149
0.4606 	1.31752e-149
0.4613 	1.12147e-149
0.462 	9.82731e-150
0.4627 	8.4308e-150
0.4634 	7.03429e-150
0.4641 	5.97026e-150
0.4648 	5.23869e-150
0.4655 	4.50758e-150
0.4662 	3.77666e-150
0.4669 	3.27631e-150
0.4676 	2.77979e-150
0.4683 	2.28327e-150
0.469 	1.88072e-150
0.4697 	1.64733e-150
0.4704 	1.41221e-150
0.4711 	1.17579e-150
0.4718 	1.00721e-150
0.4725 	8.47752e-151
0.4732 	6.88289e-151
0.4739 	5.48369e-151
0.4746 	4.80101e-151
0.4753 	4.11153e-151
0.476 	3.41298e-151
0.4767 	2.89175e-151
0.4774 	2.4201e-151
0.4781 	1.94845e-151
0.4788 	1.49724e-151
0.4795 	1.31163e-151
0.4802 	1.12416e-151
0.4809 	9.32056e-152
0.4816 	7.81158e-152
0.4823 	6.51924e-152
0.483 	5.2165e-152
0.4837 	3.91377e-152
0.4844 	3.3815e-152
0.4851 	2.90511e-152
0.4858 	2.40851e-152
0.4865 	1.99178e-152
0.4872 	1.66574e-152
0.4879 	1.32691e-152
0.4886 	9.88088e-153
0.4893 	8.26237e-153
0.49 	7.12648e-153
0.4907 	5.91264e-153
0.4914 	4.82139e-153
0.4921 	4.05207e-153
0.4928 	3.21782e-153
0.4935 	2.38356e-153
0.4942 	1.91974e-153
0.4949 	1.6617e-153
0.4956 	1.38335e-153
0.4963 	1.11151e-153
0.497 	9.41314e-154
0.4977 	7.46075e-154
0.4984 	5.50836e-154
0.4991 	4.254e-154
0.4998 	3.69763e-154
0.5005 	3.09352e-154
0.5012 	2.47032e-154
0.5019 	2.09399e-154
0.5026 	1.6582e-154
0.5033 	1.22241e-154
0.504 	9.01477e-155
0.5047 	7.87272e-155
0.5054 	6.63005e-155
0.5061 	5.31192e-155
0.5068 	4.47208e-155
0.5075 	3.54141e-155
0.5082 	2.61074e-155
0.5089 	1.83155e-155
0.5096 	1.60777e-155
0.5103 	1.3653e-155
0.511 	1.09791e-155
0.5117 	9.19126e-156
0.5124 	7.28419e-156
0.5131 	5.37713e-156
0.5138 	3.57633e-156
0.5145 	3.15675e-156
0.5152 	2.70798e-156
0.5159 	2.18627e-156
0.5166 	1.81375e-156
0.5173 	1.44607e-156
0.518 	1.0701e-156
0.5187 	6.94137e-157
0.5194 	5.97228e-157
0.5201 	5.18536e-157
0.5208 	4.2037e-157
0.5215 	3.42934e-157
0.5222 	2.77646e-157
0.5229 	2.06157e-157
0.5236 	1.34669e-157
0.5243 	1.09109e-157
0.525 	9.60738e-158
0.5257 	7.82161e-158
0.5264 	6.26938e-158
0.5271 	5.16604e-158
0.5278 	3.85185e-158
0.5285 	2.53765e-158
0.5292 	1.92896e-158
0.5299 	1.7122e-158
0.5306 	1.41137e-158
0.5313 	1.11067e-158
0.532 	9.33383e-159
0.5327 	6.99261e-159
0.5334 	4.65139e-159
0.5341 	3.3071e-159
0.5348 	2.95968e-159
0.5355 	2.47524e-159
0.5362 	1.936e-159
0.5369 	1.64088e-159
0.5376 	1.23576e-159
0.5383 	8.3064e-160
0.539 	5.51017e-160
0.5397 	4.97276e-160
0.5404 	4.22852e-160
0.5411 	3.32916e-160
0.5418 	2.8126e-160
0.5425 	2.13011e-160
0.5432 	1.44763e-160
0.5439 	8.94186e-161
0.5446 	8.13871e-161
0.5453 	7.05228e-161
0.546 	5.58815e-161
0.5467 	4.71041e-161
0.5474 	3.58845e-161
0.5481 	2.46649e-161
0.5488 	1.41639e-161
0.5495 	1.30036e-161
0.5502 	1.15085e-161
0.5509 	9.17641e-162
0.5516 	7.66043e-162
0.5523 	5.92017e-162
0.553 	4.11621e-162
0.5537 	2.31225e-162
0.5544 	2.03296e-162
0.5551 	1.84202e-162
0.5558 	1.47769e-162
0.5565 	1.20658e-162
0.5572 	9.58607e-163
0.5579 	6.74233e-163
0.5586 	3.89859e-163
0.5593 	3.11762e-163
0.56 	2.89917e-163
0.5607 	2.33945e-163
0.5614 	1.86758e-163
0.5621 	1.52711e-163
0.5628 	1.08648e-163
0.5635 	6.45838e-164
0.5642 	4.70249e-164
0.5649 	4.41901e-164
0.5656 	3.65161e-164
0.5663 	2.84888e-164
0.567 	2.39988e-164
0.5677 	1.72687e-164
0.5684 	1.05385e-164
0.5691 	6.9976e-165
0.5698 	6.6457e-165
0.5705 	5.63718e-165
0.5712 	4.36602e-165
0.5719 	3.73171e-165
0.5726 	2.71531e-165
0.5733 	1.6989e-165
0.574 	1.03078e-165
0.5747 	9.89526e-166
0.5754 	8.63748e-166
0.5761 	6.7458e-166
0.5768 	5.76131e-166
0.5775 	4.23825e-166
0.5782 	2.71518e-166
0.5789 	1.50899e-166
0.5796 	1.4646e-166
0.5803 	1.31896e-166
0.581 	1.03832e-166
0.5817 	8.86647e-167
0.5824 	6.59274e-167
0.5831 	4.31901e-167
0.5838 	2.20482e-167
0.5845 	2.1642e-167
0.5852 	2.01608e-167
0.5859 	1.5992e-167
0.5866 	1.35031e-167
0.5873 	1.02637e-167
0.588 	6.86719e-168
0.5887 	3.47065e-168
0.5894 	3.2072e-168
0.5901 	3.09894e-168
0.5908 	2.476e-168
0.5915 	2.03533e-168
0.5922 	1.60641e-168
0.5929 	1.09645e-168
0.5936 	5.86475e-169
0.5943 	4.79072e-169
0.595 	4.81451e-169
0.5957 	3.87339e-169
0.5964 	3.10007e-169
0.5971 	2.54032e-169
0.5978 	1.76691e-169
0.5985 	9.93499e-170
0.5992 	7.25304e-170
0.5999 	7.3777e-170
0.6006 	6.15652e-170
0.6013 	4.7982e-170
0.602 	4.08085e-170
0.6027 	2.8897e-170
0.6034 	1.69855e-170
0.6041 	1.1196e-170
0.6048 	1.15281e-170
0.6055 	1.00012e-170
0.6062 	7.73078e-171
0.6069 	6.6982e-171
0.6076 	4.82454e-171
0.6083 	2.95089e-171
0.609 	1.77328e-171
0.6097 	1.84848e-171
0.6104 	1.671e-171
0.6111 	1.30402e-171
0.6118 	1.1303e-171
0.6125 	8.27455e-172
0.6132 	5.24611e-172
0.6139 	2.9011e-172
0.6146 	3.0618e-172
0.6153 	2.89031e-172
0.616 	2.27589e-172
0.6167 	1.97343e-172
0.6174 	1.46722e-172
0.6181 	9.61007e-173
0.6188 	4.93377e-173
0.6195 	5.27212e-173
0.6202 	5.20747e-173
0.6209 	4.13536e-173
0.6216 	3.53837e-173
0.6223 	2.70602e-173
0.623 	1.82567e-173
0.6237 	9.4533e-174
0.6244 	9.49146e-174
0.6251 	9.82694e-174
0.6258 	7.8664e-174
0.6265 	6.53247e-174
0.6272 	5.21888e-174
0.6279 	3.61714e-174
0.6286 	2.0154e-174
0.6293 	1.79463e-174
0.63 	1.95045e-174
0.6307 	1.57311e-174
0.6314 	1.26875e-174
0.6321 	1.05672e-174
0.6328 	7.50455e-175
0.6335 	4.44192e-175
0.6342 	3.57209e-175
0.6349 	3.92039e-175
0.6356 	3.31362e-175
0.6363 	2.59741e-175
0.637 	2.25025e-175
0.6377 	1.63328e-175
0.6384 	1.01631e-175
0.6391 	7.48039e-176
0.6398 	8.28454e-176
0.6405 	7.34405e-176
0.6412 	5.70569e-176
0.6419 	5.03334e-176
0.6426 	3.72391e-176
0.6433 	2.41448e-176
0.644 	1.64106e-176
0.6447 	1.83241e-176
0.6454 	1.70436e-176
0.6461 	1.33676e-176
0.6468 	1.17685e-176
0.6475 	8.85086e-177
0.6482 	5.93326e-177
0.6489 	3.74081e-177
0.6496 	4.20705e-177
0.6503 	4.10581e-177
0.651 	3.24794e-177
0.6517 	2.85163e-177
0.6524 	2.17414e-177
0.6531 	1.49665e-177
0.6538 	8.75785e-178
0.6545 	9.90967e-178
0.6552 	1.01445e-177
0.6559 	8.08667e-178
0.6566 	6.98144e-178
0.6573 	5.45567e-178
0.658 	3.83399e-178
0.6587 	2.2123e-178
0.6594 	2.36102e-178
0.6601 	2.53375e-178
0.6608 	2.03363e-178
0.6615 	1.69917e-178
0.6622 	1.37918e-178
0.6629 	9.84492e-179
0.6636 	5.89809e-179
0.6643 	5.59848e-179
0.665 	6.29348e-179
0.6657 	5.08188e-179
0.6664 	4.11132e-179
0.6671 	3.4575e-179
0.6678 	2.49636e-179
0.6685 	1.53521e-179
0.6692 	1.29768e-179
0.6699 	1.46213e-179
0.6706 	1.23932e-179
0.6713 	9.71035e-180
0.672 	8.44624e-180
0.6727 	6.14585e-180
0.6734 	3.84547e-180
0.6741 	2.88019e-180
0.6748 	3.24997e-180
0.6755 	2.88884e-180
0.6762 	2.23534e-180
0.6769 	1.97003e-180
0.6776 	1.43989e-180
0.6783 	9.0975e-181
0.679 	5.96423e-181
0.6797 	6.73338e-181
0.6804 	6.26945e-181
0.6811 	4.8807e-181
0.6818 	4.27456e-181
0.6825 	3.12781e-181
0.6832 	1.98107e-181
0.6839 	1.11054e-181
0.6846 	1.25274e-181
0.6853 	1.22007e-181
0.686 	9.54238e-182
0.6867 	8.31035e-182
0.6874 	6.06501e-182
0.6881 	3.81966e-182
0.6888 	1.75033e-182
0.6895 	1.96883e-182
0.6902 	2.00157e-182
0.6909 	1.56991e-182
0.6916 	1.33775e-182
0.6923 	9.85765e-183
0.693 	6.11013e-183
0.6937 	2.36261e-183
0.6944 	2.32264e-183
0.6951 	2.45718e-183
0.6958 	1.92798e-183
0.6965 	1.57317e-183
0.6972 	1.19441e-183
0.6979 	7.26128e-184
0.6986 	2.57842e-184
0.6993 	1.70863e-184
0.7 	1.87868e-184
