0 	1
0.0007 	1
0.0014 	1
0.0021 	1
0.0028 	1
0.0035 	1
0.0042 	1
0.0049 	1
0.0056 	1
0.0063 	1
0.007 	1
0.0077 	1
0.0084 	1
0.0091 	1
0.0098 	1
0.0105 	1
0.0112 	1
0.0119 	1
0.0126 	1
0.0133 	1
0.014 	1
0.0147 	1
0.0154 	1
0.0161 	1
0.0168 	1
0.0175 	1
0.0182 	1
0.0189 	1
0.0196 	1
0.0203 	1
0.021 	1
0.0217 	1
0.0224 	1
0.0231 	1
0.0238 	1
0.0245 	1
0.0252 	1
0.0259 	1
0.0266 	1
0.0273 	1
0.028 	1
0.0287 	1
0.0294 	1
0.0301 	1
0.0308 	1
0.0315 	1
0.0322 	1
0.0329 	1
0.0336 	1
0.0343 	1
0.035 	1
0.0357 	1
0.0364 	1
0.0371 	1
0.0378 	1
0.0385 	1
0.0392 	1
0.0399 	1
0.0406 	1
0.0413 	1
0.042 	1
0.0427 	1
0.0434 	1
0.0441 	1
0.0448 	1
0.0455 	1
0.0462 	1
0.0469 	1
0.0476 	1
0.0483 	1
0.049 	1
0.0497 	1
0.0504 	1
0.0511 	1
0.0518 	1
0.0525 	1
0.0532 	1
0.0539 	1
0.0546 	1
0.0553 	1
0.056 	1
0.0567 	1
0.0574 	1
0.0581 	1
0.0588 	1
0.0595 	1
0.0602 	1
0.0609 	1
0.0616 	1
0.0623 	1
0.063 	1
0.0637 	1
0.0644 	1
0.0651 	1
0.0658 	1
0.0665 	1
0.0672 	1
0.0679 	1
0.0686 	1
0.0693 	1
0.07 	1
0.0707 	1
0.0714 	1
0.0721 	1
0.0728 	1
0.0735 	1
0.0742 	1
0.0749 	1
0.0756 	1
0.0763 	1
0.077 	1
0.0777 	1
0.0784 	1
0.0791 	1
0.0798 	1
0.0805 	1
0.0812 	1
0.0819 	1
0.0826 	1
0.0833 	1
0.084 	1
0.0847 	1
0.0854 	1
0.0861 	1
0.0868 	1
0.0875 	1
0.0882 	1
0.0889 	1
0.0896 	1
0.0903 	1
0.091 	1
0.0917 	1
0.0924 	1
0.0931 	1
0.0938 	1
0.0945 	1
0.0952 	1
0.0959 	1
0.0966 	1
0.0973 	1
0.098 	1
0.0987 	1
0.0994 	1
0.1001 	1
0.1008 	1
0.1015 	1
0.1022 	1
0.1029 	1
0.1036 	1
0.1043 	1
0.105 	1
0.1057 	1
0.1064 	1
0.1071 	1
0.1078 	1
0.1085 	1
0.1092 	1
0.1099 	1
0.1106 	1
0.1113 	1
0.112 	1
0.1127 	1
0.1134 	1
0.1141 	1
0.1148 	1
0.1155 	1
0.1162 	1
0.1169 	1
0.1176 	1
0.1183 	1
0.119 	1
0.1197 	1
0.1204 	1
0.1211 	1
0.1218 	1
0.1225 	1
0.1232 	1
0.1239 	1
0.1246 	1
0.1253 	1
0.126 	1
0.1267 	1
0.1274 	1
0.1281 	1
0.1288 	1
0.1295 	1
0.1302 	1
0.1309 	1
0.1316 	1
0.1323 	1
0.133 	1
0.1337 	1
0.1344 	1
0.1351 	1
0.1358 	1
0.1365 	1
0.1372 	1
0.1379 	1
0.1386 	1
0.1393 	1
0.14 	1
0.1407 	1
0.1414 	1
0.1421 	1
0.1428 	1
0.1435 	1
0.1442 	1
0.1449 	1
0.1456 	1
0.1463 	1
0.147 	1
0.1477 	1
0.1484 	1
0.1491 	1
0.1498 	1
0.1505 	1
0.1512 	1
0.1519 	1
0.1526 	1
0.1533 	1
0.154 	1
0.1547 	1
0.1554 	1
0.1561 	1
0.1568 	1
0.1575 	1
0.1582 	1
0.1589 	1
0.1596 	1
0.1603 	1
0.161 	1
0.1617 	1
0.1624 	1
0.1631 	1
0.1638 	1
0.1645 	1
0.1652 	1
0.1659 	1
0.1666 	1
0.1673 	1
0.168 	1
0.1687 	1
0.1694 	1
0.1701 	1
0.1708 	1
0.1715 	1
0.1722 	1
0.1729 	1
0.1736 	1
0.1743 	1
0.175 	1
0.1757 	1
0.1764 	1
0.1771 	1
0.1778 	1
0.1785 	1
0.1792 	1
0.1799 	1
0.1806 	1
0.1813 	1
0.182 	1
0.1827 	1
0.1834 	1
0.1841 	1
0.1848 	1
0.1855 	1
0.1862 	1
0.1869 	1
0.1876 	1
0.1883 	1
0.189 	1
0.1897 	1
0.1904 	1
0.1911 	1
0.1918 	1
0.1925 	1
0.1932 	1
0.1939 	1
0.1946 	1
0.1953 	1
0.196 	1
0.1967 	1
0.1974 	1
0.1981 	1
0.1988 	1
0.1995 	1
0.2002 	1
0.2009 	1
0.2016 	1
0.203 	1
0.2037 	1
0.2051 	1
0.2065 	1
0.2079 	1
0.2086 	1
0.21 	1
0.2107 	1
0.2121 	1
0.2135 	1
0.2142 	1
0.2149 	1
0.2163 	1
0.2177 	1
0.2191 	1
0.2198 	1
0.2205 	1
0.2212 	1
0.2226 	1
0.2233 	1
0.2247 	1
0.2261 	1
0.2275 	1
0.2289 	1
0.2296 	1
0.231 	1
0.2324 	1
0.2338 	1
0.2352 	1
0.2366 	1
0.238 	1
0.2387 	1
0.2394 	1
0.2408 	1
0.2422 	0.999997
0.2436 	0.999981
0.245 	0.999919
0.2464 	0.999736
0.2478 	0.998702
0.2492 	0.994667
0.2506 	0.990545
0.252 	0.991099
0.2534 	0.995672
0.2541 	0.997708
0.2548 	0.999081
0.2562 	0.999866
0.2576 	0.999835
0.259 	0.999656
0.2604 	0.999462
0.2611 	0.999357
0.2625 	0.998972
0.2639 	0.996197
0.2653 	0.94235
0.266 	0.84144
0.2674 	0.411253
0.2688 	0.0594523
0.2695 	0.0264968
0.2702 	0.00249169
0.2716 	3.68469e-05
0.273 	8.55349e-06
0.2744 	9.1624e-06
0.2758 	6.49543e-06
0.2765 	5.48408e-06
0.2779 	5.47963e-06
0.2793 	2.33834e-05
0.2807 	0.000300981
0.2821 	0.00083756
0.2828 	0.000983705
0.2835 	0.000955351
0.2849 	0.000535921
0.2863 	9.32047e-05
0.2877 	3.15255e-06
0.2884 	1.05878e-06
0.2891 	8.20187e-09
0.2898 	2.06513e-09
0.2905 	4.92689e-10
0.2919 	9.70799e-10
0.2926 	1.14032e-09
0.294 	8.16194e-10
0.2954 	4.57021e-10
0.2961 	3.81653e-10
0.2975 	2.9889e-10
0.2989 	2.82053e-10
0.3003 	7.93389e-10
0.3017 	1.86288e-09
0.3024 	2.23272e-09
0.3031 	1.93076e-09
0.3045 	1.01474e-09
0.3059 	4.42376e-10
0.3073 	3.80785e-10
0.3087 	7.98149e-10
0.3094 	1.1048e-09
0.3108 	1.35136e-09
0.3122 	9.24726e-10
0.3136 	3.2422e-10
0.315 	5.40196e-11
0.3164 	2.06713e-11
0.3178 	1.02211e-11
0.3192 	3.32756e-12
0.3199 	1.36767e-12
0.3206 	8.35129e-13
0.322 	5.03976e-13
0.3227 	4.45803e-13
0.3241 	2.95301e-13
0.3255 	1.26611e-13
0.3269 	2.83132e-14
0.3283 	2.27673e-15
0.329 	1.82346e-16
0.3297 	5.53602e-17
0.3311 	1.12831e-19
0.3325 	5.29438e-27
0.3339 	6.38606e-31
0.3353 	4.63333e-35
0.336 	1.27248e-35
0.3374 	6.12215e-38
0.3388 	9.14865e-43
0.3402 	-9.38389e-47
0.3416 	-2.58612e-47
0.343 	-7.29251e-48
0.3444 	-1.82294e-48
0.3451 	-7.49227e-49
0.3458 	-4.18384e-49
0.3472 	-8.08721e-50
0.3479 	7.34182e-39
0.3493 	3.70792e-38
0.3507 	4.59536e-38
0.3514 	3.49515e-38
0.3528 	5.19704e-39
0.3535 	1.46015e-39
0.3549 	1.01445e-41
0.3563 	-3.06905e-61
0.3577 	-1.66148e-61
0.3591 	-1.21459e-61
0.3605 	-3.53897e-62
0.3619 	-7.16643e-63
0.3633 	-1.10451e-63
0.3647 	-1.32102e-64
0.3661 	-1.03296e-65
0.3668 	4.87036e-57
0.3675 	1.10695e-56
0.3689 	1.88468e-56
0.3703 	7.44778e-57
0.3717 	3.7269e-58
0.3731 	5.96506e-61
0.3745 	7.57492e-66
0.3752 	1.9654e-70
0.3766 	1.66121e-76
0.3773 	2.0576e-78
0.3787 	-4.58451e-78
0.3801 	-2.47527e-79
0.3808 	-1.19595e-79
0.3822 	-9.51732e-81
0.3836 	-8.70341e-83
0.385 	3.83549e-72
0.3864 	3.37595e-72
0.3878 	1.71309e-87
0.3892 	-1.04152e-87
0.3899 	-6.39211e-88
0.3913 	-3.90183e-89
0.392 	-1.97272e-89
0.3934 	-1.95947e-90
0.3948 	2.32226e-91
0.3962 	-5.37653e-75
0.3969 	-1.07153e-74
0.3976 	-1.57804e-74
0.3983 	-1.81871e-74
0.3997 	-2.05236e-74
0.4011 	-1.99653e-74
0.4025 	-1.68366e-74
0.4039 	-1.3136e-74
0.4053 	-1.0089e-74
0.4067 	-7.76346e-75
0.4074 	-6.58589e-75
0.4088 	-4.69815e-75
0.4095 	-3.98854e-75
0.4109 	-2.89549e-75
0.4116 	-2.45698e-75
0.4123 	-2.03587e-75
0.4137 	-1.38659e-75
0.4151 	-9.44485e-76
0.4165 	-6.7516e-76
0.4172 	-5.5248e-76
0.4186 	-3.64992e-76
0.4193 	-2.98951e-76
0.4207 	-2.02566e-76
0.4221 	-1.36191e-76
0.4235 	-8.77506e-77
0.4249 	-5.59868e-77
0.4263 	-3.83857e-77
0.4277 	-2.43688e-77
0.4291 	-1.54917e-77
0.4305 	-9.99916e-78
0.4312 	-8.19327e-78
0.4326 	-5.07584e-78
0.434 	-3.17029e-78
0.4354 	-2.00188e-78
0.4368 	-1.312e-78
0.4382 	-7.9298e-79
0.4396 	-4.79671e-79
0.441 	-3.09456e-79
0.4424 	-1.85919e-79
0.4438 	-1.10502e-79
0.4452 	-6.69531e-80
0.4466 	-4.38611e-80
0.4473 	-3.30686e-80
0.4487 	-1.91579e-80
0.4501 	-1.1282e-80
0.4515 	-7.42172e-81
0.4522 	-5.59877e-81
0.4536 	-3.18799e-81
0.455 	-1.80857e-81
0.4564 	-1.19793e-81
0.4571 	-9.04956e-82
0.4578 	-6.6816e-82
0.4592 	-3.84221e-82
0.4606 	-2.30715e-82
0.4613 	-1.84901e-82
0.4627 	-1.00968e-82
0.4634 	-7.68634e-83
0.4641 	-5.74579e-83
0.4655 	-3.38723e-83
0.4669 	-2.0737e-83
0.4676 	-1.46004e-83
0.469 	-8.23335e-84
0.4704 	-4.7645e-84
0.4711 	-3.86911e-84
0.4725 	-2.02459e-84
0.4739 	-1.13266e-84
0.4753 	-6.4319e-85
0.476 	-5.25693e-85
0.4774 	-2.7874e-85
0.4788 	-1.4975e-85
0.4802 	-8.33963e-86
0.4809 	-6.85845e-86
0.4816 	-5.31054e-86
0.483 	-2.69072e-86
0.4844 	-1.45508e-86
0.4851 	-1.04191e-86
0.4858 	-8.62013e-87
0.4865 	-6.74411e-87
0.4879 	-3.34055e-87
0.4886 	-2.42081e-87
0.49 	-1.25301e-87
0.4907 	-1.04241e-87
0.4921 	-5.83437e-88
0.4928 	-3.99526e-88
0.4942 	-2.13965e-88
0.4949 	-1.50902e-88
0.4963 	-9.73388e-89
0.4977 	-4.60119e-89
0.4991 	-2.45402e-89
0.4998 	-1.74883e-89
0.5012 	-1.10161e-89
0.5026 	-5.10529e-90
0.5033 	-3.81883e-90
0.5047 	-1.95693e-90
0.5054 	-1.47323e-90
0.5061 	-1.19865e-90
0.5075 	-5.47438e-91
0.5089 	-2.92165e-91
0.5103 	-1.54112e-91
0.511 	-1.2596e-91
0.5124 	-5.96646e-92
0.5138 	-3.03571e-92
0.5152 	-1.55677e-92
0.5159 	-1.27721e-92
0.5173 	-6.27715e-93
0.5187 	-3.10194e-93
0.5201 	-1.52536e-93
0.5208 	-1.2547e-93
0.5222 	-6.37492e-94
0.5229 	-4.29055e-94
0.5243 	-2.22328e-94
0.525 	-1.44432e-94
0.5264 	-9.26326e-95
0.5278 	-4.04339e-95
0.5292 	-2.11521e-95
0.5306 	-1.09081e-95
0.5313 	-8.58038e-96
0.5327 	-3.67269e-96
0.5341 	-1.94473e-96
0.5355 	-9.65558e-97
0.5362 	-7.64442e-97
0.5369 	-5.33222e-97
0.5376 	-3.21852e-97
0.539 	-1.72923e-97
0.5404 	-8.2633e-98
0.5418 	-4.66782e-98
0.5432 	-2.08732e-98
0.5446 	-1.01406e-98
0.546 	-5.44811e-99
0.5474 	-2.37787e-99
0.5488 	-1.23794e-99
0.5502 	-5.48349e-100
0.5516 	-3.21846e-100
0.553 	-1.38329e-100
0.5537 	-1.00554e-100
0.5544 	-6.98158e-101
0.5558 	-3.41892e-101
0.5572 	-1.62736e-101
0.5586 	-7.98009e-102
0.56 	-3.24821e-102
0.5614 	-1.95232e-102
0.5628 	-8.11278e-103
0.5642 	-4.30106e-103
0.5656 	-1.92424e-103
0.567 	-9.72867e-104
0.5684 	-4.54103e-104
0.5691 	-3.22664e-104
0.5698 	-1.9815e-104
0.5712 	-1.0451e-104
0.5726 	-4.19343e-105
0.574 	-2.34697e-105
0.5754 	-9.67576e-106
0.5768 	-5.09115e-106
0.5782 	-2.26879e-106
0.5796 	-1.0666e-106
0.581 	-5.00835e-107
0.5817 	-3.5157e-107
0.5831 	-1.53338e-107
0.5838 	-1.13668e-107
0.5845 	-7.47043e-108
0.5852 	-4.3861e-108
0.5859 	-3.33197e-108
0.5873 	-1.44258e-108
0.5887 	-7.55456e-109
0.5901 	-2.83373e-109
0.5915 	-1.52298e-109
0.5922 	-9.66213e-110
0.5929 	-6.40671e-110
0.5943 	-3.33967e-110
0.595 	-1.78716e-110
0.5964 	-9.58482e-111
0.5978 	-3.96732e-111
0.5985 	-3.06233e-111
0.5999 	-1.1945e-111
0.6013 	-5.853e-112
0.6027 	-2.38828e-112
0.6041 	-1.32421e-112
0.6048 	-7.71649e-113
0.6062 	-3.50489e-113
0.6076 	-1.39886e-113
0.609 	-7.97027e-114
0.6097 	-4.8167e-114
0.6111 	-2.06424e-114
0.6125 	-7.96688e-115
0.6132 	-6.31813e-115
0.6139 	-4.64824e-115
0.6153 	-1.6868e-115
0.6167 	-7.97485e-116
0.6181 	-3.5206e-116
0.6195 	-1.68784e-116
0.6209 	-6.62577e-117
0.6223 	-2.72162e-117
0.6237 	-1.43966e-117
0.6251 	-5.07451e-118
0.6265 	-2.36484e-118
0.6279 	-1.00427e-118
0.6286 	-7.65511e-119
0.63 	-2.67733e-119
0.6307 	-1.91986e-119
0.6314 	-1.23373e-119
0.6328 	-5.15316e-120
0.6342 	-2.74004e-120
0.6356 	-9.96204e-121
0.6363 	-6.26464e-121
0.6377 	-2.57494e-121
0.6384 	-1.99433e-121
0.6398 	-8.07922e-122
0.6412 	-3.15327e-122
0.6426 	-1.24986e-122
0.644 	-6.98125e-123
0.6454 	-2.47271e-123
0.6468 	-1.036e-123
0.6475 	-5.91149e-124
0.6489 	-3.36884e-124
0.6503 	-1.18386e-124
0.6517 	-4.91449e-125
0.6531 	-2.14771e-125
0.6545 	-1.0094e-125
0.6552 	-5.50781e-126
0.6566 	-2.26239e-126
0.658 	-9.68095e-127
0.6594 	-4.72242e-127
0.6608 	-1.67483e-127
0.6622 	-6.43659e-128
0.6636 	-3.17747e-128
0.6643 	-2.13397e-128
0.665 	-1.09681e-128
0.6664 	-4.38713e-129
0.6671 	-2.86182e-129
0.6685 	-1.36466e-129
0.6692 	-9.33987e-130
0.6699 	-5.07307e-130
0.6713 	-1.85049e-130
0.6727 	-7.46943e-131
0.6734 	-5.71488e-131
0.6741 	-3.97859e-131
0.6748 	-2.26049e-131
0.6755 	-1.35786e-131
0.6769 	-5.15925e-132
0.6776 	-2.99106e-132
0.679 	-1.63144e-132
0.6804 	-5.49929e-133
0.6811 	-3.26954e-133
0.6818 	-2.07262e-133
0.6825 	-1.15732e-133
0.6839 	-6.43878e-134
0.6853 	-2.14237e-134
0.686 	-1.31239e-134
0.6874 	-4.65426e-135
0.6888 	-2.45208e-135
0.6902 	-8.06982e-136
0.6916 	-3.09963e-136
0.6923 	-1.94493e-136
0.6937 	-1.05532e-136
0.6951 	-4.01771e-137
0.6965 	-1.98241e-137
0.6979 	-1.59693e-137
0.6986 	-1.64384e-137
0.6993 	-1.91548e-137
0.7 	-2.34801e-137
