0 	1
0.0007 	1
0.0014 	1
0.0021 	1
0.0028 	1
0.0035 	1
0.0042 	1
0.0049 	1
0.0056 	1
0.0063 	1
0.007 	1
0.0077 	1
0.0084 	1
0.0091 	1
0.0098 	1
0.0105 	1
0.0112 	1
0.0119 	1
0.0126 	1
0.0133 	1
0.014 	1
0.0147 	1
0.0154 	1
0.0161 	1
0.0168 	1
0.0175 	1
0.0182 	1
0.0189 	1
0.0196 	1
0.0203 	1
0.021 	1
0.0217 	1
0.0224 	1
0.0231 	1
0.0238 	1
0.0245 	1
0.0252 	1
0.0259 	1
0.0266 	1
0.0273 	1
0.028 	1
0.0287 	1
0.0294 	1
0.0301 	1
0.0308 	1
0.0315 	1
0.0322 	1
0.0329 	1
0.0336 	1
0.0343 	1
0.035 	1
0.0357 	1
0.0364 	1
0.0371 	1
0.0378 	1
0.0385 	1
0.0392 	1
0.0399 	1
0.0406 	1
0.0413 	1
0.042 	1
0.0427 	1
0.0434 	1
0.0441 	1
0.0448 	1
0.0455 	1
0.0462 	1
0.0469 	1
0.0476 	1
0.0483 	1
0.049 	1
0.0497 	1
0.0504 	1
0.0511 	1
0.0518 	1
0.0525 	1
0.0532 	1
0.0539 	1
0.0546 	1
0.0553 	1
0.056 	1
0.0567 	1
0.0574 	1
0.0581 	1
0.0588 	1
0.0595 	1
0.0602 	1
0.0609 	1
0.0616 	1
0.0623 	1
0.063 	1
0.0637 	1
0.0644 	1
0.0651 	1
0.0658 	1
0.0665 	1
0.0672 	1
0.0679 	1
0.0686 	1
0.0693 	1
0.07 	1
0.0707 	1
0.0714 	1
0.0721 	1
0.0728 	1
0.0735 	1
0.0742 	1
0.0749 	1
0.0756 	1
0.0763 	1
0.077 	1
0.0777 	1
0.0784 	1
0.0791 	1
0.0798 	1
0.0805 	1
0.0812 	1
0.0819 	1
0.0826 	1
0.0833 	1
0.084 	1
0.0847 	1
0.0854 	1
0.0861 	1
0.0868 	1
0.0875 	1
0.0882 	1
0.0889 	1
0.0896 	1
0.0903 	1
0.091 	1
0.0917 	1
0.0924 	1
0.0931 	1
0.0938 	1
0.0945 	1
0.0952 	1
0.0959 	1
0.0966 	1
0.0973 	1
0.098 	1
0.0987 	1
0.0994 	1
0.1001 	1
0.1008 	1
0.1015 	1
0.1022 	1
0.1029 	1
0.1036 	1
0.1043 	1
0.105 	1
0.1057 	1
0.1064 	1
0.1071 	1
0.1078 	1
0.1085 	1
0.1092 	1
0.1099 	1
0.1106 	1
0.1113 	1
0.112 	1
0.1127 	1
0.1134 	1
0.1141 	1
0.1148 	1
0.1155 	1
0.1162 	1
0.1169 	1
0.1176 	1
0.1183 	1
0.119 	1
0.1197 	1
0.1204 	1
0.1211 	1
0.1218 	1
0.1225 	1
0.1232 	1
0.1239 	1
0.1246 	1
0.1253 	1
0.126 	1
0.1267 	1
0.1274 	1
0.1281 	1
0.1288 	1
0.1295 	1
0.1302 	1
0.1309 	1
0.1316 	1
0.1323 	1
0.133 	1
0.1337 	1
0.1344 	1
0.1351 	1
0.1358 	1
0.1365 	1
0.1372 	1
0.1379 	1
0.1386 	1
0.1393 	1
0.14 	1
0.1407 	1
0.1414 	1
0.1421 	1
0.1428 	1
0.1435 	1
0.1442 	1
0.1449 	1
0.1456 	1
0.1463 	1
0.147 	1
0.1477 	1
0.1484 	1
0.1491 	1
0.1498 	1
0.1505 	1
0.1512 	1
0.1519 	1
0.1526 	1
0.1533 	1
0.154 	1
0.1547 	1
0.1554 	1
0.1561 	1
0.1568 	1
0.1575 	1
0.1582 	1
0.1589 	1
0.1596 	1
0.1603 	1
0.161 	1
0.1617 	1
0.1624 	1
0.1631 	1
0.1638 	1
0.1645 	1
0.1652 	1
0.1659 	1
0.1666 	1
0.1673 	1
0.168 	1
0.1687 	1
0.1694 	1
0.1701 	1
0.1708 	1
0.1715 	1
0.1722 	1
0.1729 	1
0.1736 	1
0.1743 	1
0.175 	1
0.1757 	1
0.1764 	1
0.1771 	1
0.1778 	1
0.1785 	1
0.1792 	1
0.1799 	1
0.1806 	1
0.1813 	1
0.182 	1
0.1827 	1
0.1834 	1
0.1841 	1
0.1848 	1
0.1855 	1
0.1862 	1
0.1869 	1
0.1876 	1
0.1883 	1
0.189 	1
0.1897 	1
0.1904 	1
0.1911 	1
0.1918 	1
0.1925 	1
0.1932 	1
0.1939 	1
0.1946 	1
0.1953 	1
0.196 	1
0.1967 	1
0.1974 	1
0.1981 	1
0.1988 	1
0.1995 	1
0.2002 	1
0.2009 	1
0.2016 	1
0.2023 	1
0.203 	1
0.2037 	1
0.2044 	1
0.2051 	1
0.2058 	1
0.2065 	1
0.2072 	1
0.2079 	1
0.2086 	1
0.2093 	1
0.21 	1
0.2107 	1
0.2114 	1
0.2121 	1
0.2128 	1
0.2135 	1
0.2142 	1
0.2149 	1
0.2156 	1
0.2163 	1
0.217 	1
0.2177 	1
0.2184 	1
0.2191 	1
0.2198 	1
0.2205 	1
0.2212 	1
0.2219 	1
0.2226 	1
0.2233 	1
0.224 	1
0.2247 	1
0.2254 	1
0.2261 	1
0.2268 	1
0.2275 	1
0.2282 	1
0.2289 	1
0.2296 	1
0.2303 	0.999987
0.231 	0.999956
0.2317 	0.999925
0.2324 	0.999895
0.2331 	0.999864
0.2338 	0.999833
0.2345 	0.999802
0.2352 	0.99884
0.2359 	0.995543
0.2366 	0.992247
0.2373 	0.988951
0.238 	0.985655
0.2387 	0.98236
0.2394 	0.979064
0.2401 	0.970999
0.2408 	0.934255
0.2415 	0.89751
0.2422 	0.860765
0.2429 	0.824021
0.2436 	0.787276
0.2443 	0.750531
0.245 	0.713775
0.2457 	0.647407
0.2464 	0.581039
0.2471 	0.51467
0.2478 	0.448302
0.2485 	0.381934
0.2492 	0.315565
0.2499 	0.249197
0.2506 	0.211226
0.2513 	0.178001
0.252 	0.144777
0.2527 	0.111552
0.2534 	0.0783278
0.2541 	0.0451034
0.2548 	0.011879
0.2555 	0.00215833
0.2562 	0.00182302
0.2569 	0.00148725
0.2576 	0.00115144
0.2583 	0.000815635
0.259 	0.00047983
0.2597 	0.000144024
0.2604 	2.11096e-07
0.2611 	1.79002e-07
0.2618 	1.46878e-07
0.2625 	1.14746e-07
0.2632 	8.26142e-08
0.2639 	5.04822e-08
0.2646 	1.83502e-08
0.2653 	8.10613e-13
0.266 	6.89473e-13
0.2667 	5.68659e-13
0.2674 	4.48025e-13
0.2681 	3.27392e-13
0.2688 	2.06758e-13
0.2695 	8.6125e-14
0.2702 	2.50177e-18
0.2709 	2.13337e-18
0.2716 	1.76723e-18
0.2723 	1.40336e-18
0.273 	1.0395e-18
0.2737 	6.75627e-19
0.2744 	3.11759e-19
0.2751 	6.3115e-24
0.2758 	5.39339e-24
0.2765 	4.48295e-24
0.2772 	3.58629e-24
0.2779 	2.68964e-24
0.2786 	1.79299e-24
0.2793 	8.96334e-25
0.28 	1.3257e-29
0.2807 	1.1343e-29
0.2814 	9.45005e-30
0.2821 	7.61241e-30
0.2828 	5.77477e-30
0.2835 	3.93713e-30
0.2842 	2.0995e-30
0.2849 	2.61859e-31
0.2856 	2.02741e-35
0.2863 	1.69116e-35
0.287 	1.37119e-35
0.2877 	1.05122e-35
0.2884 	7.31246e-36
0.2891 	4.11275e-36
0.2898 	9.13043e-37
0.2905 	3.13463e-41
0.2912 	2.61782e-41
0.2919 	2.13352e-41
0.2926 	1.65171e-41
0.2933 	1.16991e-41
0.294 	6.88112e-42
0.2947 	2.06311e-42
0.2954 	4.25639e-47
0.2961 	3.56116e-47
0.2968 	2.9117e-47
0.2975 	2.27471e-47
0.2982 	1.63773e-47
0.2989 	1.00074e-47
0.2996 	3.63758e-48
0.3003 	5.14645e-53
0.301 	4.31356e-53
0.3017 	3.53413e-53
0.3024 	2.78441e-53
0.3031 	2.03469e-53
0.3038 	1.28496e-53
0.3045 	5.35241e-54
0.3052 	5.61312e-59
0.3059 	4.71291e-59
0.3066 	3.86491e-59
0.3073 	3.06914e-59
0.308 	2.27336e-59
0.3087 	1.47758e-59
0.3094 	6.81801e-60
0.3101 	5.58877e-65
0.3108 	4.70033e-65
0.3115 	3.85389e-65
0.3122 	3.08306e-65
0.3129 	2.31222e-65
0.3136 	1.54138e-65
0.3143 	7.70549e-66
0.315 	5.1668e-71
0.3157 	4.32505e-71
0.3164 	3.54157e-71
0.3171 	2.85288e-71
0.3178 	2.16419e-71
0.3185 	1.4755e-71
0.3192 	7.86815e-72
0.3199 	9.81279e-73
0.3206 	3.70607e-77
0.3213 	3.02729e-77
0.322 	2.45452e-77
0.3227 	1.88175e-77
0.3234 	1.30898e-77
0.3241 	7.36207e-78
0.3248 	1.63436e-78
0.3255 	2.98078e-83
0.3262 	2.4332e-83
0.3269 	1.97909e-83
0.3276 	1.53216e-83
0.3283 	1.08523e-83
0.329 	6.38302e-84
0.3297 	1.91374e-84
0.3304 	2.26512e-89
0.3311 	1.85249e-89
0.3318 	1.50532e-89
0.3325 	1.17601e-89
0.3332 	8.4669e-90
0.3339 	5.17374e-90
0.3346 	1.88058e-90
0.3353 	1.63504e-95
0.336 	1.33952e-95
0.3367 	1.08589e-95
0.3374 	8.55533e-96
0.3381 	6.25173e-96
0.3388 	3.94812e-96
0.3395 	1.64451e-96
0.3402 	-4.97402e-101
0.3409 	-5.23931e-101
0.3416 	-5.46389e-101
0.3423 	-5.64777e-101
0.343 	-5.83165e-101
0.3437 	-6.01553e-101
0.3444 	-6.19941e-101
0.3451 	-6.14996e-101
0.3458 	-4.71031e-101
0.3465 	-3.55175e-101
0.3472 	-2.89915e-101
0.3479 	-2.24656e-101
0.3486 	-1.59396e-101
0.3493 	-9.41367e-102
0.35 	-2.9242e-102
0.3507 	-2.24245e-102
0.3514 	-1.66796e-102
0.3521 	-1.35961e-102
0.3528 	-1.05125e-102
0.3535 	-7.42893e-103
0.3542 	-4.34536e-103
0.3549 	-1.2618e-103
0.3556 	-6.67079e-104
0.3563 	-4.92561e-104
0.357 	-4.02864e-104
0.3577 	-3.13167e-104
0.3584 	-2.23469e-104
0.3591 	-1.33772e-104
0.3598 	-4.40752e-105
0.3605 	-1.56274e-105
0.3612 	-1.16382e-105
0.3619 	-9.4467e-106
0.3626 	-7.39349e-106
0.3633 	-5.34028e-106
0.364 	-3.28707e-106
0.3647 	-1.23386e-106
0.3654 	-3.11882e-107
0.3661 	-2.37121e-107
0.3668 	-1.89556e-107
0.3675 	-1.49409e-107
0.3682 	-1.09261e-107
0.3689 	-6.91133e-108
0.3696 	-2.89657e-108
0.3703 	-5.50777e-109
0.371 	-4.27135e-109
0.3717 	-3.38137e-109
0.3724 	-2.68386e-109
0.3731 	-1.98635e-109
0.3738 	-1.28883e-109
0.3745 	-5.9132e-110
0.3752 	-8.80603e-111
0.3759 	-6.96093e-111
0.3766 	-5.48719e-111
0.3773 	-4.3848e-111
0.378 	-3.2824e-111
0.3787 	-2.18001e-111
0.3794 	-1.07762e-111
0.3801 	-1.29484e-112
0.3808 	-1.04254e-112
0.3815 	-8.2284e-113
0.3822 	-6.61803e-113
0.3829 	-5.00767e-113
0.3836 	-3.39731e-113
0.3843 	-1.78695e-113
0.385 	-1.81069e-114
0.3857 	-1.45158e-114
0.3864 	-1.15319e-114
0.3871 	-9.33258e-115
0.3878 	-7.13331e-115
0.3885 	-4.93403e-115
0.3892 	-2.73476e-115
0.3899 	-5.35484e-116
0.3906 	-1.89546e-116
0.3913 	-1.52305e-116
0.392 	-1.23988e-116
0.3927 	-9.56714e-117
0.3934 	-6.73545e-117
0.3941 	-3.90376e-117
0.3948 	-1.07207e-117
0.3955 	-2.33692e-118
0.3962 	-1.91277e-118
0.3969 	-1.56134e-118
0.3976 	-1.21551e-118
0.3983 	-8.69678e-119
0.399 	-5.23845e-119
0.3997 	-1.78013e-119
0.4004 	-2.73444e-120
0.4011 	-2.28415e-120
0.4018 	-1.87154e-120
0.4025 	-1.46921e-120
0.4032 	-1.06687e-120
0.4039 	-6.64538e-121
0.4046 	-2.62204e-121
0.4053 	-3.04813e-122
0.406 	-2.59176e-122
0.4067 	-2.14135e-122
0.4074 	-1.69424e-122
0.4081 	-1.24714e-122
0.4088 	-8.00034e-123
0.4095 	-3.5293e-123
0.4102 	-3.24553e-124
0.4109 	-2.8019e-124
0.4116 	-2.34241e-124
0.4123 	-1.86704e-124
0.413 	-1.39168e-124
0.4137 	-9.16314e-125
0.4144 	-4.40949e-125
0.4151 	-3.30633e-126
0.4158 	-2.89126e-126
0.4165 	-2.45161e-126
0.4172 	-1.96771e-126
0.4179 	-1.4838e-126
0.4186 	-9.999e-127
0.4193 	-5.15995e-127
0.42 	-3.34231e-128
0.4207 	-2.85091e-128
0.4214 	-2.45544e-128
0.4221 	-1.98373e-128
0.4228 	-1.51202e-128
0.4235 	-1.04032e-128
0.4242 	-5.68611e-129
0.4249 	-9.69039e-130
0.4256 	-2.68781e-130
0.4263 	-2.35297e-130
0.427 	-1.91274e-130
0.4277 	-1.47252e-130
0.4284 	-1.03229e-130
0.4291 	-5.92059e-131
0.4298 	-1.5183e-131
0.4305 	-2.42348e-132
0.4312 	-2.14818e-132
0.4319 	-1.76339e-132
0.4326 	-1.37019e-132
0.4333 	-9.76977e-133
0.434 	-5.8377e-133
0.4347 	-1.90562e-133
0.4354 	-2.08987e-134
0.4361 	-1.86585e-134
0.4368 	-1.55385e-134
0.4375 	-1.21785e-134
0.4382 	-8.8186e-135
0.4389 	-5.45866e-135
0.4396 	-2.09871e-135
0.4403 	-1.7235e-136
0.441 	-1.54762e-136
0.4417 	-1.30829e-136
0.4424 	-1.03372e-136
0.4431 	-7.59148e-137
0.4438 	-4.84575e-137
0.4445 	-2.10001e-137
0.4452 	-1.35914e-138
0.4459 	-1.2261e-138
0.4466 	-1.05231e-138
0.4473 	-8.37781e-139
0.448 	-6.23252e-139
0.4487 	-4.08724e-139
0.4494 	-1.94195e-139
0.4501 	-1.02482e-140
0.4508 	-9.27973e-141
0.4515 	-8.08485e-141
0.4522 	-6.48255e-141
0.4529 	-4.88025e-141
0.4536 	-3.27794e-141
0.4543 	-1.67564e-141
0.455 	-7.76877e-143
0.4557 	-6.7107e-143
0.4564 	-5.93312e-143
0.4571 	-4.78916e-143
0.4578 	-3.6452e-143
0.4585 	-2.50124e-143
0.4592 	-1.35727e-143
0.4599 	-2.13313e-144
0.4606 	-4.63768e-145
0.4613 	-4.15917e-145
0.462 	-3.37844e-145
0.4627 	-2.59771e-145
0.4634 	-1.81699e-145
0.4641 	-1.03626e-145
0.4648 	-2.55531e-146
0.4655 	-3.06352e-147
0.4662 	-2.77009e-147
0.4669 	-2.27611e-147
0.4676 	-1.76672e-147
0.4683 	-1.25732e-147
0.469 	-7.47922e-148
0.4697 	-2.38524e-148
0.4704 	-1.93476e-149
0.4711 	-1.75341e-149
0.4718 	-1.46485e-149
0.4725 	-1.14704e-149
0.4732 	-8.29243e-150
0.4739 	-5.11441e-150
0.4746 	-1.93639e-150
0.4753 	-1.16849e-151
0.476 	-1.06107e-151
0.4767 	-9.00804e-152
0.4774 	-7.1118e-152
0.4781 	-5.21555e-152
0.4788 	-3.31931e-152
0.4795 	-1.42307e-152
0.4802 	-6.75045e-154
0.4809 	-6.14073e-154
0.4816 	-5.29468e-154
0.4823 	-4.2123e-154
0.483 	-3.12992e-154
0.4837 	-2.04755e-154
0.4844 	-9.65173e-155
0.4851 	-3.73139e-156
0.4858 	-3.3998e-156
0.4865 	-2.9755e-156
0.4872 	-2.38431e-156
0.4879 	-1.79311e-156
0.4886 	-1.20192e-156
0.4893 	-6.10733e-157
0.49 	-2.11121e-158
0.4907 	-1.8013e-158
0.4914 	-1.59932e-158
0.4921 	-1.29024e-158
0.4928 	-9.8116e-159
0.4935 	-6.72082e-159
0.4942 	-3.63004e-159
0.4949 	-5.39255e-160
0.4956 	-9.13599e-161
0.4963 	-8.22449e-161
0.497 	-6.67736e-161
0.4977 	-5.13023e-161
0.4984 	-3.5831e-161
0.4991 	-2.03597e-161
0.4998 	-4.88837e-162
0.5005 	-4.43708e-163
0.5012 	-4.02438e-163
0.5019 	-3.30617e-163
0.5026 	-2.56447e-163
0.5033 	-1.82276e-163
0.504 	-1.08106e-163
0.5047 	-3.39349e-164
0.5054 	-2.06415e-165
0.5061 	-1.8749e-165
0.5068 	-1.5667e-165
0.5075 	-1.22605e-165
0.5082 	-8.854e-166
0.5089 	-5.4475e-166
0.5096 	-2.041e-166
0.5103 	-9.20048e-168
0.511 	-8.36863e-168
0.5117 	-7.10774e-168
0.5124 	-5.60848e-168
0.5131 	-4.10922e-168
0.5138 	-2.60996e-168
0.5145 	-1.1107e-168
0.5152 	-3.93028e-170
0.5159 	-3.57971e-170
0.5166 	-3.08817e-170
0.5173 	-2.45568e-170
0.518 	-1.8232e-170
0.5187 	-1.19071e-170
0.5194 	-5.5822e-171
0.5201 	-1.6095e-172
0.5208 	-1.46781e-172
0.5215 	-1.28536e-172
0.5222 	-1.02954e-172
0.5229 	-7.73713e-173
0.5236 	-5.17887e-173
0.5243 	-2.62061e-173
0.525 	-6.90852e-175
0.5257 	-5.77073e-175
0.5264 	-5.12656e-175
0.5271 	-4.13423e-175
0.5278 	-3.14191e-175
0.5285 	-2.14959e-175
0.5292 	-1.15726e-175
0.5299 	-1.64941e-176
0.5306 	-2.17581e-177
0.5313 	-1.95979e-177
0.532 	-1.59058e-177
0.5327 	-1.22138e-177
0.5334 	-8.52169e-178
0.5341 	-4.82962e-178
0.5348 	-1.13755e-178
0.5355 	-7.86912e-180
0.5362 	-7.14041e-180
0.5369 	-5.86462e-180
0.5376 	-4.54674e-180
0.5383 	-3.22886e-180
0.539 	-1.91098e-180
0.5397 	-5.93101e-181
0.5404 	-2.73036e-182
0.5411 	-2.48086e-182
0.5418 	-2.07274e-182
0.5425 	-1.62136e-182
0.5432 	-1.16998e-182
0.5439 	-7.18604e-183
0.5446 	-2.67224e-183
0.5453 	-9.08996e-185
0.546 	-8.27016e-185
0.5467 	-7.0236e-185
0.5474 	-5.53996e-185
0.5481 	-4.05632e-185
0.5488 	-2.57268e-185
0.5495 	-1.08904e-185
0.5502 	-2.90405e-187
0.5509 	-2.64549e-187
0.5516 	-2.2822e-187
0.5523 	-1.81416e-187
0.553 	-1.34612e-187
0.5537 	-8.7808e-188
0.5544 	-4.1004e-188
0.5551 	-8.90389e-190
0.5558 	-8.12118e-190
0.5565 	-7.11186e-190
0.5572 	-5.69464e-190
0.5579 	-4.27741e-190
0.5586 	-2.86019e-190
0.5593 	-1.44296e-190
0.56 	-2.9513e-192
0.5607 	-2.39262e-192
0.5614 	-2.12564e-192
0.5621 	-1.71372e-192
0.5628 	-1.30179e-192
0.5635 	-8.89869e-193
0.5642 	-4.77945e-193
0.5649 	-6.60211e-194
0.5656 	-6.76516e-195
0.5663 	-6.09392e-195
0.567 	-4.94465e-195
0.5677 	-3.79538e-195
0.5684 	-2.64611e-195
0.5691 	-1.49683e-195
0.5698 	-3.47562e-196
0.5705 	-1.8358e-197
0.5712 	-1.66591e-197
0.5719 	-1.36798e-197
0.5726 	-1.06019e-197
0.5733 	-7.52408e-198
0.574 	-4.44623e-198
0.5747 	-1.36838e-198
0.5754 	-4.78069e-200
0.5761 	-4.34407e-200
0.5768 	-3.62888e-200
0.5775 	-2.83772e-200
0.5782 	-2.04656e-200
0.5789 	-1.2554e-200
0.5796 	-4.64243e-201
0.5803 	-1.19462e-202
0.581 	-1.08693e-202
0.5817 	-9.22992e-203
0.5824 	-7.27816e-203
0.5831 	-5.32639e-203
0.5838 	-3.37462e-203
0.5845 	-1.42286e-203
0.5852 	-2.86408e-205
0.5859 	-2.60917e-205
0.5866 	-2.2507e-205
0.5873 	-1.78866e-205
0.588 	-1.32662e-205
0.5887 	-8.64588e-206
0.5894 	-4.02552e-206
0.5901 	-6.58676e-208
0.5908 	-6.00789e-208
0.5915 	-5.26099e-208
0.5922 	-4.21163e-208
0.5929 	-3.16227e-208
0.5936 	-2.11291e-208
0.5943 	-1.06355e-208
0.595 	-1.70941e-210
0.5957 	-1.32665e-210
0.5964 	-1.1786e-210
0.5971 	-9.5e-211
0.5978 	-7.21404e-211
0.5985 	-4.92809e-211
0.5992 	-2.64213e-211
0.5999 	-3.56174e-212
0.6006 	-2.8085e-213
0.6013 	-2.52986e-213
0.602 	-2.05236e-213
0.6027 	-1.57486e-213
0.6034 	-1.09736e-213
0.6041 	-6.19853e-214
0.6048 	-1.42351e-214
0.6055 	-5.69804e-216
0.6062 	-5.17084e-216
0.6069 	-4.2454e-216
0.6076 	-3.28932e-216
0.6083 	-2.33324e-216
0.609 	-1.37717e-216
0.6097 	-4.21093e-217
0.6104 	-1.10746e-218
0.6111 	-1.00633e-218
0.6118 	-8.40548e-219
0.6125 	-6.57133e-219
0.6132 	-4.73719e-219
0.6139 	-2.90305e-219
0.6146 	-1.0689e-219
0.6153 	-2.06093e-221
0.616 	-1.87517e-221
0.6167 	-1.5922e-221
0.6174 	-1.25524e-221
0.6181 	-9.18273e-222
0.6188 	-5.81309e-222
0.6195 	-2.44345e-222
0.6202 	-3.67019e-224
0.6209 	-3.34358e-224
0.6216 	-2.88403e-224
0.6223 	-2.29152e-224
0.623 	-1.69901e-224
0.6237 	-1.10651e-224
0.6244 	-5.14002e-225
0.6251 	-6.2505e-227
0.6258 	-5.70127e-227
0.6265 	-4.9923e-227
0.6272 	-3.99581e-227
0.6279 	-2.99932e-227
0.6286 	-2.00283e-227
0.6293 	-1.00634e-227
0.63 	-1.28164e-229
0.6307 	-9.28941e-230
0.6314 	-8.25261e-230
0.6321 	-6.65087e-230
0.6328 	-5.04913e-230
0.6335 	-3.4474e-230
0.6342 	-1.84566e-230
0.6349 	-2.43923e-231
0.6356 	-1.44506e-232
0.6363 	-1.3017e-232
0.637 	-1.05585e-232
0.6377 	-8.1e-233
0.6384 	-5.6415e-233
0.6391 	-3.183e-233
0.6398 	-7.24505e-234
0.6405 	-2.14402e-235
0.6412 	-1.94568e-235
0.6419 	-1.59725e-235
0.6426 	-1.23728e-235
0.6433 	-8.77302e-236
0.644 	-5.17326e-236
0.6447 	-1.5735e-236
0.6454 	-3.0306e-238
0.6461 	-2.75391e-238
0.6468 	-2.30001e-238
0.6475 	-1.79777e-238
0.6482 	-1.29554e-238
0.6489 	-7.93302e-239
0.6496 	-2.91066e-239
0.6503 	-4.07588e-241
0.651 	-3.70856e-241
0.6517 	-3.14871e-241
0.6524 	-2.48189e-241
0.6531 	-1.81507e-241
0.6538 	-1.14825e-241
0.6545 	-4.81429e-242
0.6552 	-5.20803e-244
0.6559 	-4.74466e-244
0.6566 	-4.09234e-244
0.6573 	-3.25106e-244
0.658 	-2.40978e-244
0.6587 	-1.5685e-244
0.6594 	-7.27222e-245
0.6601 	-6.31218e-247
0.6608 	-5.75764e-247
0.6615 	-5.04154e-247
0.6622 	-4.03462e-247
0.6629 	-3.02769e-247
0.6636 	-2.02077e-247
0.6643 	-1.01385e-247
0.665 	-1.02732e-249
0.6657 	-6.61549e-250
0.6664 	-5.8771e-250
0.6671 	-4.73577e-250
0.6678 	-3.59444e-250
0.6685 	-2.45311e-250
0.6692 	-1.31178e-250
0.6699 	-1.70448e-251
0.6706 	-7.18421e-253
0.6713 	-6.4716e-253
0.672 	-5.24865e-253
0.6727 	-4.02571e-253
0.6734 	-2.80276e-253
0.6741 	-1.57982e-253
0.6748 	-3.56875e-254
0.6755 	-7.36195e-256
0.6762 	-6.68108e-256
0.6769 	-5.48405e-256
0.6776 	-4.24732e-256
0.6783 	-3.01059e-256
0.679 	-1.77385e-256
0.6797 	-5.3712e-257
0.6804 	-7.11119e-259
0.6811 	-6.46211e-259
0.6818 	-5.39658e-259
0.6825 	-4.21747e-259
0.6832 	-3.03836e-259
0.6839 	-1.85924e-259
0.6846 	-6.80132e-260
0.6853 	-6.47578e-262
0.686 	-5.89234e-262
0.6867 	-5.00254e-262
0.6874 	-3.94254e-262
0.6881 	-2.88253e-262
0.6888 	-1.82253e-262
0.6895 	-7.62526e-263
0.6902 	-5.57301e-265
0.6909 	-5.07732e-265
0.6916 	-4.37912e-265
0.6923 	-3.47843e-265
0.693 	-2.57774e-265
0.6937 	-1.67705e-265
0.6944 	-7.76355e-266
0.6951 	-4.56066e-268
0.6958 	-4.16045e-268
0.6965 	-3.64342e-268
0.6972 	-2.91612e-268
0.6979 	-2.18883e-268
0.6986 	-1.46154e-268
0.6993 	-7.34243e-269
0.7 	-1.28172e-270
