0 	1
0.0007 	1
0.0014 	1
0.0021 	1
0.0028 	1
0.0035 	1
0.0042 	1
0.0049 	1
0.0056 	1
0.0063 	1
0.007 	1
0.0077 	1
0.0084 	1
0.0091 	1
0.0098 	1
0.0105 	1
0.0112 	1
0.0119 	1
0.0126 	1
0.0133 	1
0.014 	1
0.0147 	1
0.0154 	1
0.0161 	1
0.0168 	1
0.0175 	1
0.0182 	1
0.0189 	1
0.0196 	1
0.0203 	1
0.021 	1
0.0217 	1
0.0224 	1
0.0231 	1
0.0238 	1
0.0245 	1
0.0252 	1
0.0259 	1
0.0266 	1
0.0273 	1
0.028 	1
0.0287 	1
0.0294 	1
0.0301 	1
0.0308 	1
0.0315 	1
0.0322 	1
0.0329 	1
0.0336 	1
0.0343 	1
0.035 	1
0.0357 	1
0.0364 	1
0.0371 	1
0.0378 	1
0.0385 	1
0.0392 	1
0.0399 	1
0.0406 	1
0.0413 	1
0.042 	1
0.0427 	1
0.0434 	1
0.0441 	1
0.0448 	1
0.0455 	1
0.0462 	1
0.0469 	1
0.0476 	1
0.0483 	1
0.049 	1
0.0497 	1
0.0504 	1
0.0511 	1
0.0518 	1
0.0525 	1
0.0532 	1
0.0539 	1
0.0546 	1
0.0553 	1
0.056 	1
0.0567 	1
0.0574 	1
0.0581 	1
0.0588 	1
0.0595 	1
0.0602 	1
0.0609 	1
0.0616 	1
0.0623 	1
0.063 	1
0.0637 	1
0.0644 	1
0.0651 	1
0.0658 	1
0.0665 	1
0.0672 	1
0.0679 	1
0.0686 	1
0.0693 	1
0.07 	1
0.0707 	1
0.0714 	1
0.0721 	1
0.0728 	1
0.0735 	1
0.0742 	1
0.0749 	1
0.0756 	1
0.0763 	1
0.077 	1
0.0777 	1
0.0784 	1
0.0791 	1
0.0798 	1
0.0805 	1
0.0812 	1
0.0819 	1
0.0826 	1
0.0833 	1
0.084 	1
0.0847 	1
0.0854 	1
0.0861 	1
0.0868 	1
0.0875 	1
0.0882 	1
0.0889 	1
0.0896 	1
0.0903 	1
0.091 	1
0.0917 	1
0.0924 	1
0.0931 	1
0.0938 	1
0.0945 	1
0.0952 	1
0.0959 	1
0.0966 	1
0.0973 	1
0.098 	1
0.0987 	1
0.0994 	1
0.1001 	1
0.1008 	1
0.1015 	1
0.1022 	1
0.1029 	1
0.1036 	1
0.1043 	1
0.105 	1
0.1057 	1
0.1064 	1
0.1071 	1
0.1078 	1
0.1085 	1
0.1092 	1
0.1099 	1
0.1106 	1
0.1113 	1
0.112 	1
0.1127 	1
0.1134 	1
0.1141 	1
0.1148 	1
0.1155 	1
0.1162 	1
0.1169 	1
0.1176 	1
0.1183 	1
0.119 	1
0.1197 	1
0.1204 	1
0.1211 	1
0.1218 	1
0.1225 	1
0.1232 	1
0.1239 	1
0.1246 	1
0.1253 	1
0.126 	1
0.1267 	1
0.1274 	1
0.1281 	1
0.1288 	1
0.1295 	1
0.1302 	1
0.1309 	1
0.1316 	1
0.1323 	1
0.133 	1
0.1337 	1
0.1344 	1
0.1351 	1
0.1358 	1
0.1365 	1
0.1372 	1
0.1379 	1
0.1386 	1
0.1393 	1
0.14 	1
0.1407 	1
0.1414 	1
0.1421 	1
0.1428 	1
0.1435 	1
0.1442 	1
0.1449 	1
0.1456 	1
0.1463 	1
0.147 	1
0.1477 	1
0.1484 	1
0.1491 	1
0.1498 	1
0.1505 	1
0.1512 	1
0.1519 	1
0.1526 	1
0.1533 	1
0.154 	1
0.1547 	1
0.1554 	1
0.1561 	1
0.1568 	1
0.1575 	1
0.1582 	1
0.1589 	1
0.1596 	1
0.1603 	1
0.161 	1
0.1617 	1
0.1624 	1
0.1631 	1
0.1638 	1
0.1645 	1
0.1652 	1
0.1659 	1
0.1666 	1
0.1673 	1
0.168 	1
0.1687 	1
0.1694 	1
0.1701 	1
0.1708 	1
0.1715 	1
0.1722 	1
0.1729 	1
0.1736 	1
0.1743 	1
0.175 	1
0.1757 	1
0.1764 	1
0.1771 	1
0.1778 	1
0.1785 	1
0.1792 	1
0.1799 	1
0.1806 	1
0.1813 	1
0.182 	1
0.1827 	1
0.1834 	1
0.1841 	1
0.1848 	1
0.1855 	1
0.1862 	1
0.1869 	1
0.1876 	1
0.1883 	1
0.189 	1
0.1897 	1
0.1904 	1
0.1911 	1
0.1918 	1
0.1925 	1
0.1932 	1
0.1939 	1
0.1946 	1
0.1953 	1
0.196 	1
0.1967 	1
0.1974 	1
0.1981 	1
0.1988 	1
0.1995 	1
0.2002 	1
0.2009 	1
0.2016 	1
0.2023 	1
0.203 	1
0.2037 	1
0.2044 	1
0.2051 	1
0.2058 	1
0.2065 	1
0.2072 	1
0.2079 	1
0.2086 	1
0.2093 	1
0.21 	1
0.2107 	1
0.2114 	1
0.2121 	1
0.2128 	1
0.2135 	1
0.2142 	1
0.2149 	1
0.2156 	1
0.2163 	1
0.217 	1
0.2177 	1
0.2184 	1
0.2191 	1
0.2198 	1
0.2205 	1
0.2212 	1
0.2219 	1
0.2226 	1
0.2233 	1
0.224 	1
0.2247 	1
0.2254 	1
0.2261 	1
0.2268 	1
0.2275 	1
0.2282 	1
0.2289 	1
0.2296 	1
0.2303 	0.999999
0.231 	0.999998
0.2317 	0.999996
0.2324 	0.999994
0.2331 	0.999993
0.2338 	0.999991
0.2345 	0.999989
0.2352 	0.999753
0.2359 	0.998928
0.2366 	0.998104
0.2373 	0.997279
0.238 	0.996454
0.2387 	0.995629
0.2394 	0.994805
0.2401 	0.990779
0.2408 	0.967536
0.2415 	0.944291
0.2422 	0.921041
0.2429 	0.89779
0.2436 	0.87454
0.2443 	0.85129
0.245 	0.828037
0.2457 	0.758936
0.2464 	0.689835
0.2471 	0.62074
0.2478 	0.551645
0.2485 	0.48255
0.2492 	0.413455
0.2499 	0.34436
0.2506 	0.294407
0.2513 	0.247652
0.252 	0.200904
0.2527 	0.154156
0.2534 	0.107408
0.2541 	0.0606601
0.2548 	0.0139121
0.2555 	0.000508085
0.2562 	0.000435791
0.2569 	0.000355984
0.2576 	0.000275599
0.2583 	0.000195214
0.259 	0.000114829
0.2597 	3.44439e-05
0.2604 	4.77442e-10
0.2611 	3.69715e-10
0.2618 	2.95791e-10
0.2625 	2.31085e-10
0.2632 	1.6638e-10
0.2639 	1.01674e-10
0.2646 	3.69686e-11
0.2653 	5.38967e-17
0.266 	2.18233e-17
0.2667 	9.12429e-18
0.2674 	7.1888e-18
0.2681 	5.25331e-18
0.2688 	3.31782e-18
0.2695 	1.38233e-18
0.2702 	2.01689e-23
0.2709 	6.80912e-24
0.2716 	1.17189e-25
0.2723 	9.30626e-26
0.273 	6.89363e-26
0.2737 	4.481e-26
0.2744 	2.06837e-26
0.2751 	5.84119e-30
0.2758 	2.29184e-30
0.2765 	9.43416e-33
0.2772 	7.54755e-33
0.2779 	5.66093e-33
0.2786 	3.77432e-33
0.2793 	1.8877e-33
0.28 	1.26994e-36
0.2807 	5.60082e-37
0.2814 	2.24546e-39
0.2821 	1.80887e-39
0.2828 	1.37229e-39
0.2835 	9.35703e-40
0.2842 	4.99119e-40
0.2849 	6.25343e-41
0.2856 	1.08602e-43
0.2863 	4.06338e-46
0.287 	3.29467e-46
0.2877 	2.52596e-46
0.2884 	1.75726e-46
0.2891 	9.88549e-47
0.2898 	2.19842e-47
0.2905 	1.73723e-50
0.2912 	1.21108e-51
0.2919 	4.68742e-53
0.2926 	3.62902e-53
0.2933 	2.57063e-53
0.294 	1.51223e-53
0.2947 	4.53834e-54
0.2954 	2.33345e-57
0.2961 	4.17665e-58
0.2968 	6.09278e-60
0.2975 	4.76003e-60
0.2982 	3.42728e-60
0.2989 	2.09454e-60
0.2996 	7.61787e-61
0.3003 	2.69123e-64
0.301 	7.15292e-65
0.3017 	8.4488e-67
0.3024 	6.65666e-67
0.3031 	4.86452e-67
0.3038 	3.07238e-67
0.3045 	1.28024e-67
0.3052 	2.70384e-71
0.3059 	9.11552e-72
0.3066 	1.39673e-73
0.3073 	1.10917e-73
0.308 	8.21603e-74
0.3087 	5.3404e-74
0.3094 	2.46478e-74
0.3101 	2.39591e-78
0.3108 	9.55727e-79
0.3115 	2.79011e-80
0.3122 	2.23208e-80
0.3129 	1.67405e-80
0.3136 	1.11602e-80
0.3143 	5.57989e-81
0.315 	1.91528e-85
0.3157 	8.7955e-86
0.3164 	6.31353e-87
0.3171 	5.08587e-87
0.3178 	3.85822e-87
0.3185 	2.63057e-87
0.3192 	1.40291e-87
0.3199 	1.7526e-88
0.3206 	7.80286e-93
0.3213 	1.50085e-93
0.322 	1.2169e-93
0.3227 	9.32952e-94
0.3234 	6.49001e-94
0.3241 	3.6505e-94
0.3248 	8.10988e-95
0.3255 	7.97635e-100
0.3262 	3.80534e-100
0.3269 	2.89944e-100
0.3276 	2.24471e-100
0.3283 	1.58999e-100
0.329 	9.35256e-101
0.3297 	2.80527e-101
0.3304 	1.10976e-106
0.3311 	8.35438e-107
0.3318 	6.62744e-107
0.3325 	5.17765e-107
0.3332 	3.72786e-107
0.3339 	2.27808e-107
0.3346 	8.28289e-108
0.3353 	1.95589e-113
0.336 	1.7086e-113
0.3367 	1.42585e-113
0.3374 	1.12339e-113
0.3381 	8.20928e-114
0.3388 	5.18468e-114
0.3395 	2.16009e-114
0.3402 	3.62907e-120
0.3409 	3.29538e-120
0.3416 	2.83654e-120
0.3423 	2.25253e-120
0.343 	1.66852e-120
0.3437 	1.08452e-120
0.3444 	5.00511e-121
0.3451 	6.44298e-127
0.3458 	5.90732e-127
0.3465 	5.1921e-127
0.3472 	4.15366e-127
0.3479 	3.11521e-127
0.3486 	2.07677e-127
0.3493 	1.03833e-127
0.35 	1.05613e-133
0.3507 	9.71109e-134
0.3514 	8.68154e-134
0.3521 	6.99343e-134
0.3528 	5.30531e-134
0.3535 	3.6172e-134
0.3542 	1.92908e-134
0.3549 	2.40964e-135
0.3556 	1.45453e-140
0.3563 	1.32052e-140
0.357 	1.07068e-140
0.3577 	8.2085e-141
0.3584 	5.71017e-141
0.3591 	3.21185e-141
0.3598 	7.13517e-142
0.3605 	2.37461e-147
0.3612 	2.14876e-147
0.3619 	1.76327e-147
0.3626 	1.3655e-147
0.3633 	9.67734e-148
0.364 	5.69968e-148
0.3647 	1.72201e-148
0.3654 	1.69325e-150
0.3661 	1.54787e-150
0.3668 	1.29442e-150
0.3675 	1.01151e-150
0.3682 	7.28589e-151
0.3689 	4.45672e-151
0.3696 	1.62755e-151
0.3703 	1.08392e-153
0.371 	9.9393e-154
0.3717 	8.46445e-154
0.3724 	6.6702e-154
0.3731 	4.87595e-154
0.3738 	3.08171e-154
0.3745 	1.28746e-154
0.3752 	5.93372e-157
0.3759 	5.44797e-157
0.3766 	4.71952e-157
0.3773 	3.74835e-157
0.378 	2.77719e-157
0.3787 	1.80603e-157
0.3794 	8.34866e-158
0.3801 	2.52946e-160
0.3808 	2.32482e-160
0.3815 	2.0471e-160
0.3822 	1.63784e-160
0.3829 	1.22858e-160
0.3836 	8.19319e-161
0.3843 	4.10059e-161
0.385 	8.49618e-164
0.3857 	7.81647e-164
0.3864 	6.99134e-164
0.3871 	5.63233e-164
0.3878 	4.27331e-164
0.3885 	2.91429e-164
0.3892 	1.55528e-164
0.3899 	1.96262e-165
0.3906 	2.12833e-167
0.3913 	1.93251e-167
0.392 	1.56699e-167
0.3927 	1.20146e-167
0.3934 	8.35942e-168
0.3941 	4.7042e-168
0.3948 	1.04898e-168
0.3955 	4.79898e-171
0.3962 	4.39186e-171
0.3969 	3.60672e-171
0.3976 	2.79249e-171
0.3983 	1.97826e-171
0.399 	1.16404e-171
0.3997 	3.49808e-172
0.4004 	9.1199e-175
0.4011 	8.35547e-175
0.4018 	6.99041e-175
0.4025 	5.46155e-175
0.4032 	3.93269e-175
0.4039 	2.40383e-175
0.4046 	8.74976e-176
0.4053 	1.48256e-178
0.406 	1.35975e-178
0.4067 	1.15801e-178
0.4074 	9.12411e-179
0.4081 	6.66811e-179
0.4088 	4.21211e-179
0.4095 	1.75611e-179
0.4102 	2.09376e-182
0.4109 	1.92236e-182
0.4116 	1.66526e-182
0.4123 	1.32246e-182
0.413 	9.79653e-183
0.4137 	6.36852e-183
0.4144 	2.9405e-183
0.4151 	2.60705e-186
0.4158 	2.3961e-186
0.4165 	2.1098e-186
0.4172 	1.68788e-186
0.4179 	1.26597e-186
0.4186 	8.44059e-187
0.4193 	4.22146e-187
0.42 	2.87881e-190
0.4207 	2.64845e-190
0.4214 	2.36882e-190
0.4221 	1.90826e-190
0.4228 	1.4477e-190
0.4235 	9.87138e-191
0.4242 	5.26577e-191
0.4249 	6.60159e-192
0.4256 	2.62137e-194
0.4263 	2.38015e-194
0.427 	1.92989e-194
0.4277 	1.47963e-194
0.4284 	1.02936e-194
0.4291 	5.79101e-195
0.4298 	1.28838e-195
0.4305 	2.36265e-198
0.4312 	2.16219e-198
0.4319 	1.7756e-198
0.4326 	1.37469e-198
0.4333 	9.73785e-199
0.434 	5.72877e-199
0.4347 	1.7197e-199
0.4354 	1.95868e-202
0.4361 	1.79449e-202
0.4368 	1.50129e-202
0.4375 	1.17291e-202
0.4382 	8.44524e-203
0.4389 	5.16141e-203
0.4396 	1.87759e-203
0.4403 	1.50075e-206
0.441 	1.37644e-206
0.4417 	1.1722e-206
0.4424 	9.2357e-207
0.4431 	6.74937e-207
0.4438 	4.26304e-207
0.4445 	1.77672e-207
0.4452 	1.07384e-210
0.4459 	9.85923e-211
0.4466 	8.54054e-211
0.4473 	6.7823e-211
0.448 	5.02406e-211
0.4487 	3.26581e-211
0.4494 	1.50757e-211
0.4501 	7.30575e-215
0.4508 	6.71456e-215
0.4515 	5.91222e-215
0.4522 	4.72984e-215
0.4529 	3.54746e-215
0.4536 	2.36508e-215
0.4543 	1.18269e-215
0.455 	4.72798e-219
0.4557 	4.34964e-219
0.4564 	3.89038e-219
0.4571 	3.13395e-219
0.4578 	2.37753e-219
0.4585 	1.6211e-219
0.4592 	8.64673e-220
0.4599 	1.08246e-220
0.4606 	2.6808e-223
0.4613 	2.43411e-223
0.462 	1.97362e-223
0.4627 	1.51313e-223
0.4634 	1.05265e-223
0.4641 	5.92159e-224
0.4648 	1.31672e-224
0.4655 	1.58079e-227
0.4662 	1.44667e-227
0.4669 	1.188e-227
0.4676 	9.19756e-228
0.4683 	6.51511e-228
0.469 	3.83265e-228
0.4697 	1.15019e-228
0.4704 	8.93943e-232
0.4711 	8.19004e-232
0.4718 	6.85184e-232
0.4725 	5.35306e-232
0.4732 	3.85429e-232
0.4739 	2.35551e-232
0.4746 	8.56736e-233
0.4753 	4.81757e-236
0.476 	4.41849e-236
0.4767 	3.76286e-236
0.4774 	2.96471e-236
0.4781 	2.16656e-236
0.4788 	1.3684e-236
0.4795 	5.70251e-237
0.4802 	2.46071e-240
0.4809 	2.25925e-240
0.4816 	1.95707e-240
0.4823 	1.55416e-240
0.483 	1.15124e-240
0.4837 	7.48331e-241
0.4844 	3.45418e-241
0.4851 	1.19603e-244
0.4858 	1.09925e-244
0.4865 	9.67897e-245
0.4872 	7.74323e-245
0.4879 	5.8075e-245
0.4886 	3.87176e-245
0.4893 	1.93602e-245
0.49 	5.44836e-249
0.4907 	5.03449e-249
0.4914 	4.50323e-249
0.4921 	3.62761e-249
0.4928 	2.75199e-249
0.4935 	1.87636e-249
0.4942 	1.00074e-249
0.4949 	1.25115e-250
0.4956 	1.38918e-253
0.4963 	1.26746e-253
0.497 	1.02743e-253
0.4977 	7.87403e-254
0.4984 	5.47373e-254
0.4991 	3.07342e-254
0.4998 	6.73114e-255
0.5005 	-1.15759e-256
0.5012 	-1.04963e-256
0.5019 	-8.61639e-257
0.5026 	-6.67489e-257
0.5033 	-4.73339e-257
0.504 	-2.79188e-257
0.5047 	-8.50376e-258
0.5054 	-1.76521e-259
0.5061 	-1.6038e-259
0.5068 	-1.33942e-259
0.5075 	-1.04695e-259
0.5082 	-7.54485e-260
0.5089 	-4.62017e-260
0.5096 	-1.69548e-260
0.5103 	-2.37304e-262
0.511 	-2.15891e-262
0.5117 	-1.83291e-262
0.5124 	-1.44475e-262
0.5131 	-1.0566e-262
0.5138 	-6.68443e-263
0.5145 	-2.80289e-263
0.5152 	-3.01361e-265
0.5159 	-2.74517e-265
0.5166 	-2.3676e-265
0.5173 	-1.88089e-265
0.518 	-1.39418e-265
0.5187 	-9.07478e-266
0.5194 	-4.20773e-266
0.5201 	-3.62008e-268
0.5208 	-3.3017e-268
0.5215 	-2.89083e-268
0.5222 	-2.31347e-268
0.5229 	-1.73611e-268
0.5236 	-1.15875e-268
0.5243 	-5.8139e-269
0.525 	-6.49737e-271
0.5257 	-3.75505e-271
0.5264 	-3.33563e-271
0.5271 	-2.68787e-271
0.5278 	-2.0401e-271
0.5285 	-1.39233e-271
0.5292 	-7.44567e-272
0.5299 	-9.68003e-273
0.5306 	-4.03089e-274
0.5313 	-3.63069e-274
0.532 	-2.94461e-274
0.5327 	-2.25853e-274
0.5334 	-1.57244e-274
0.5341 	-8.86362e-275
0.5348 	-2.00279e-275
0.5355 	-4.08403e-277
0.5362 	-3.70595e-277
0.5369 	-3.04195e-277
0.5376 	-2.35596e-277
0.5383 	-1.66997e-277
0.539 	-9.83986e-278
0.5397 	-2.97998e-278
0.5404 	-3.89849e-280
0.5411 	-3.54232e-280
0.5418 	-2.95817e-280
0.5425 	-2.31184e-280
0.5432 	-1.66552e-280
0.5439 	-1.0192e-280
0.5446 	-3.72871e-281
0.5453 	-3.50045e-283
0.546 	-3.1848e-283
0.5467 	-2.70377e-283
0.5474 	-2.13087e-283
0.5481 	-1.55797e-283
0.5488 	-9.85064e-284
0.5495 	-4.12163e-284
0.5502 	-2.95597e-286
0.5509 	-2.69282e-286
0.5516 	-2.32241e-286
0.5523 	-1.84474e-286
0.553 	-1.36707e-286
0.5537 	-8.89403e-287
0.5544 	-4.11733e-287
0.5551 	-2.34137e-289
0.5558 	-2.13557e-289
0.5565 	-1.86983e-289
0.5572 	-1.4962e-289
0.5579 	-1.12257e-289
0.5586 	-7.48941e-290
0.5593 	-3.75311e-290
0.56 	-3.23111e-292
0.5607 	-1.5855e-292
0.5614 	-1.40846e-292
0.5621 	-1.13481e-292
0.5628 	-8.6117e-293
0.5635 	-5.87527e-293
0.5642 	-3.13884e-293
0.5649 	-4.02414e-294
0.5656 	-1.10124e-295
0.5663 	-9.91958e-296
0.567 	-8.04429e-296
0.5677 	-6.169e-296
0.5684 	-4.29371e-296
0.5691 	-2.41842e-296
0.5698 	-5.43126e-297
0.5705 	-7.13312e-299
0.5712 	-6.47315e-299
0.5719 	-5.31292e-299
0.5726 	-4.11421e-299
0.5733 	-2.9155e-299
0.574 	-1.71679e-299
0.5747 	-5.18078e-300
0.5754 	-4.29726e-302
0.5761 	-3.9049e-302
0.5768 	-3.26078e-302
0.5775 	-2.54801e-302
0.5782 	-1.83524e-302
0.5789 	-1.12246e-302
0.5796 	-4.09689e-303
0.5803 	-2.40283e-305
0.581 	-2.18628e-305
0.5817 	-1.85601e-305
0.5824 	-1.46257e-305
0.5831 	-1.06913e-305
0.5838 	-6.75688e-306
0.5845 	-2.82246e-306
0.5852 	-1.24345e-308
0.5859 	-1.13282e-308
0.5866 	-9.7699e-309
0.5873 	-7.75963e-309
0.588 	-5.74935e-309
0.5887 	-3.73908e-309
0.5894 	-1.7288e-309
0.5901 	-5.93035e-312
0.5908 	-5.4094e-312
0.5915 	-4.73637e-312
0.5922 	-3.78958e-312
0.5929 	-2.8428e-312
0.5936 	-1.89602e-312
0.5943 	-9.49237e-313
0.595 	-6.13542e-315
0.5957 	-2.37065e-315
0.5964 	-2.10596e-315
0.5971 	-1.69659e-315
0.5978 	-1.28722e-315
0.5985 	-8.77852e-316
0.5992 	-4.68483e-316
0.5999 	-5.91143e-317
0.6006 	-6.42646e-319
0.6013 	-5.78877e-319
0.602 	-4.69357e-319
0.6027 	-3.59838e-319
0.6034 	-2.50318e-319
0.6041 	-1.40794e-319
0.6048 	-3.12744e-320
0.6055 	0
0.6062 	0
0.6069 	0
0.6076 	0
0.6083 	0
0.609 	0
0.6097 	0
0.6104 	0
0.6111 	0
0.6118 	0
0.6125 	0
0.6132 	0
0.6139 	0
0.6146 	0
0.6153 	0
0.616 	0
0.6167 	0
0.6174 	0
0.6181 	0
0.6188 	0
0.6195 	0
0.6202 	0
0.6209 	0
0.6216 	0
0.6223 	0
0.623 	0
0.6237 	0
0.6244 	0
0.6251 	0
0.6258 	0
0.6265 	0
0.6272 	0
0.6279 	0
0.6286 	0
0.6293 	0
0.63 	0
0.6307 	0
0.6314 	0
0.6321 	0
0.6328 	0
0.6335 	0
0.6342 	0
0.6349 	0
0.6356 	0
0.6363 	0
0.637 	0
0.6377 	0
0.6384 	0
0.6391 	0
0.6398 	0
0.6405 	0
0.6412 	0
0.6419 	0
0.6426 	0
0.6433 	0
0.644 	0
0.6447 	0
0.6454 	0
0.6461 	0
0.6468 	0
0.6475 	0
0.6482 	0
0.6489 	0
0.6496 	0
0.6503 	0
0.651 	0
0.6517 	0
0.6524 	0
0.6531 	0
0.6538 	0
0.6545 	0
0.6552 	0
0.6559 	0
0.6566 	0
0.6573 	0
0.658 	0
0.6587 	0
0.6594 	0
0.6601 	0
0.6608 	0
0.6615 	0
0.6622 	0
0.6629 	0
0.6636 	0
0.6643 	0
0.665 	0
0.6657 	0
0.6664 	0
0.6671 	0
0.6678 	0
0.6685 	0
0.6692 	0
0.6699 	0
0.6706 	0
0.6713 	0
0.672 	0
0.6727 	0
0.6734 	0
0.6741 	0
0.6748 	0
0.6755 	0
0.6762 	0
0.6769 	0
0.6776 	0
0.6783 	0
0.679 	0
0.6797 	0
0.6804 	0
0.6811 	0
0.6818 	0
0.6825 	0
0.6832 	0
0.6839 	0
0.6846 	0
0.6853 	0
0.686 	0
0.6867 	0
0.6874 	0
0.6881 	0
0.6888 	0
0.6895 	0
0.6902 	0
0.6909 	0
0.6916 	0
0.6923 	0
0.693 	0
0.6937 	0
0.6944 	0
0.6951 	0
0.6958 	0
0.6965 	0
0.6972 	0
0.6979 	0
0.6986 	0
0.6993 	0
0.7 	0
