0 	1
0.0007 	1
0.0014 	1
0.0021 	1
0.0028 	1
0.0035 	1
0.0042 	1
0.0049 	1
0.0056 	1
0.0063 	1
0.007 	1
0.0077 	1
0.0084 	1
0.0091 	1
0.0098 	1
0.0105 	1
0.0112 	1
0.0119 	1
0.0126 	1
0.0133 	1
0.014 	1
0.0147 	1
0.0154 	1
0.0161 	1
0.0168 	1
0.0175 	1
0.0182 	1
0.0189 	1
0.0196 	1
0.0203 	1
0.021 	1
0.0217 	1
0.0224 	1
0.0231 	1
0.0238 	1
0.0245 	1
0.0252 	1
0.0259 	1
0.0266 	1
0.0273 	1
0.028 	1
0.0287 	1
0.0294 	1
0.0301 	1
0.0308 	1
0.0315 	1
0.0322 	1
0.0329 	1
0.0336 	1
0.0343 	1
0.035 	1
0.0357 	1
0.0364 	1
0.0371 	1
0.0378 	1
0.0385 	1
0.0392 	1
0.0399 	1
0.0406 	1
0.0413 	1
0.042 	1
0.0427 	1
0.0434 	1
0.0441 	1
0.0448 	1
0.0455 	1
0.0462 	1
0.0469 	1
0.0476 	1
0.0483 	1
0.049 	1
0.0497 	1
0.0504 	1
0.0511 	1
0.0518 	1
0.0525 	1
0.0532 	1
0.0539 	1
0.0546 	1
0.0553 	1
0.056 	1
0.0567 	1
0.0574 	1
0.0581 	1
0.0588 	1
0.0595 	1
0.0602 	1
0.0609 	1
0.0616 	1
0.0623 	1
0.063 	1
0.0637 	1
0.0644 	1
0.0651 	1
0.0658 	1
0.0665 	1
0.0672 	1
0.0679 	1
0.0686 	1
0.0693 	1
0.07 	1
0.0707 	1
0.0714 	1
0.0721 	1
0.0728 	1
0.0735 	1
0.0742 	1
0.0749 	1
0.0756 	1
0.0763 	1
0.077 	1
0.0777 	1
0.0784 	1
0.0791 	1
0.0798 	1
0.0805 	1
0.0812 	1
0.0819 	1
0.0826 	1
0.0833 	1
0.084 	1
0.0847 	1
0.0854 	1
0.0861 	1
0.0868 	1
0.0875 	1
0.0882 	1
0.0889 	1
0.0896 	1
0.0903 	1
0.091 	1
0.0917 	1
0.0924 	1
0.0931 	1
0.0938 	1
0.0945 	1
0.0952 	1
0.0959 	1
0.0966 	1
0.0973 	1
0.098 	1
0.0987 	1
0.0994 	1
0.1001 	1
0.1008 	1
0.1015 	1
0.1022 	1
0.1029 	1
0.1036 	1
0.1043 	1
0.105 	1
0.1057 	0.999999
0.1064 	0.999999
0.1071 	0.999999
0.1078 	0.999999
0.1085 	0.999999
0.1092 	0.999999
0.1099 	0.999998
0.1106 	0.999998
0.1113 	0.999997
0.112 	0.999997
0.1127 	0.999997
0.1134 	0.999997
0.1141 	0.999997
0.1148 	0.999997
0.1155 	0.999997
0.1162 	0.999996
0.1169 	0.999996
0.1176 	0.999996
0.1183 	0.999996
0.119 	0.999997
0.1197 	0.999997
0.1204 	0.999997
0.1211 	0.999998
0.1218 	0.999997
0.1225 	0.999997
0.1232 	0.999997
0.1239 	0.999997
0.1246 	0.999996
0.1253 	0.999995
0.126 	0.999996
0.1267 	0.999994
0.1274 	0.999994
0.1281 	0.999993
0.1288 	0.999993
0.1295 	0.99999
0.1302 	0.999987
0.1309 	0.999988
0.1316 	0.999988
0.1323 	0.999988
0.133 	0.999988
0.1337 	0.999988
0.1344 	0.999985
0.1351 	0.999982
0.1358 	0.999988
0.1365 	0.999991
0.1372 	0.999992
0.1379 	0.999992
0.1386 	0.999992
0.1393 	0.99999
0.14 	0.999985
0.1407 	0.999992
0.1414 	0.999993
0.1421 	0.999988
0.1428 	0.999984
0.1435 	0.99998
0.1442 	0.999975
0.1449 	0.999965
0.1456 	0.999957
0.1463 	0.99994
0.147 	0.99991
0.1477 	0.999881
0.1484 	0.999852
0.1491 	0.999822
0.1498 	0.999779
0.1505 	0.999701
0.1512 	0.99962
0.1519 	0.999545
0.1526 	0.99947
0.1533 	0.999395
0.154 	0.99932
0.1547 	0.99925
0.1554 	0.999071
0.1561 	0.998876
0.1568 	0.998799
0.1575 	0.998722
0.1582 	0.998645
0.1589 	0.998568
0.1596 	0.998559
0.1603 	0.998452
0.161 	0.998206
0.1617 	0.998261
0.1624 	0.99832
0.1631 	0.998379
0.1638 	0.998438
0.1645 	0.998587
0.1652 	0.998976
0.1659 	0.999153
0.1666 	0.999205
0.1673 	0.99926
0.168 	0.999316
0.1687 	0.999371
0.1694 	0.999426
0.1701 	0.999282
0.1708 	0.999279
0.1715 	0.999113
0.1722 	0.998956
0.1729 	0.998799
0.1736 	0.998643
0.1743 	0.998486
0.175 	0.998194
0.1757 	0.997906
0.1764 	0.997669
0.1771 	0.99744
0.1778 	0.997212
0.1785 	0.996983
0.1792 	0.996754
0.1799 	0.996633
0.1806 	0.996375
0.1813 	0.996313
0.182 	0.996228
0.1827 	0.996142
0.1834 	0.996057
0.1841 	0.995972
0.1848 	0.995994
0.1855 	0.995994
0.1862 	0.996092
0.1869 	0.996086
0.1876 	0.99611
0.1883 	0.996159
0.189 	0.996209
0.1897 	0.996257
0.1904 	0.996244
0.1911 	0.996426
0.1918 	0.996621
0.1925 	0.996915
0.1932 	0.997372
0.1939 	0.997776
0.1946 	0.998214
0.1953 	0.998577
0.196 	0.998874
0.1967 	0.999193
0.1974 	0.999504
0.1981 	0.999699
0.1988 	0.999835
0.1995 	0.999854
0.2002 	0.999905
0.2009 	0.999948
0.2023 	0.999993
0.2037 	1
0.2044 	1
0.2051 	1
0.2065 	0.999999
0.2079 	0.999997
0.2093 	0.999994
0.2107 	0.99999
0.2121 	0.999984
0.2135 	0.999965
0.2149 	0.999862
0.2156 	0.999429
0.2163 	0.998648
0.217 	0.994136
0.2177 	0.981727
0.2191 	0.869475
0.2205 	0.560341
0.2219 	0.217166
0.2233 	0.0506303
0.2247 	0.00751874
0.2254 	0.0019547
0.2268 	0.00014402
0.2275 	1.34863e-05
0.2289 	7.98482e-06
0.2303 	7.98467e-06
0.231 	7.98461e-06
0.2317 	7.98455e-06
0.2324 	7.98449e-06
0.2338 	1.6257e-05
0.2352 	7.39275e-05
0.2359 	9.39616e-05
0.2373 	6.76541e-05
0.2387 	1.80747e-05
0.2394 	8.70115e-06
0.2408 	9.89947e-07
0.2415 	8.97731e-07
0.2429 	6.24781e-06
0.2436 	1.34999e-05
0.2443 	4.90918e-05
0.2457 	0.000181254
0.2471 	0.000315863
0.2478 	0.000345741
0.2492 	0.000310334
0.2506 	0.000179844
0.252 	5.64018e-05
0.2527 	2.22098e-05
0.2534 	1.10347e-05
0.2541 	4.71827e-06
0.2548 	3.26092e-06
0.2562 	7.11292e-06
0.2576 	3.66235e-05
0.259 	6.41464e-05
0.2597 	6.40464e-05
0.2604 	5.52852e-05
0.2611 	4.0028e-05
0.2618 	2.47278e-05
0.2632 	4.66078e-06
0.2639 	8.37194e-07
0.2653 	2.11723e-07
0.2667 	4.18218e-07
0.2674 	6.96205e-07
0.2681 	1.03511e-06
0.2688 	1.36134e-06
0.2702 	1.51683e-06
0.2716 	3.28138e-06
0.2723 	5.70922e-06
0.273 	8.07754e-06
0.2744 	1.04446e-05
0.2751 	9.97691e-06
0.2765 	5.22421e-06
0.2779 	1.10789e-06
0.2793 	1.18779e-07
0.28 	7.20411e-08
0.2814 	4.19069e-07
0.2828 	7.59618e-07
0.2842 	5.29058e-07
0.2856 	2.12793e-07
0.287 	2.6625e-07
0.2877 	5.14255e-07
0.2884 	1.08542e-06
0.2891 	1.5953e-06
0.2898 	2.04386e-06
0.2912 	1.59616e-06
0.2926 	5.21936e-07
0.2933 	2.76105e-07
0.294 	1.59656e-07
0.2954 	5.9034e-07
0.2961 	1.0526e-06
0.2975 	1.8068e-06
0.2989 	1.64046e-06
0.2996 	1.26077e-06
0.3003 	8.5919e-07
0.3017 	1.83697e-07
0.3031 	1.19069e-08
0.3038 	6.87078e-10
0.3052 	3.78015e-10
0.3066 	3.51543e-10
0.308 	3.74485e-10
0.3094 	3.79728e-10
0.3108 	6.26738e-10
0.3115 	4.20559e-09
0.3129 	6.91049e-08
0.3136 	1.5863e-07
0.315 	3.18725e-07
0.3157 	2.9434e-07
0.3164 	2.60703e-07
0.3171 	1.9311e-07
0.3178 	1.27805e-07
0.3185 	6.5549e-08
0.3192 	3.22382e-08
0.3199 	1.50473e-08
0.3206 	1.60435e-08
0.3213 	2.00018e-08
0.322 	2.30212e-08
0.3234 	2.09672e-08
0.3241 	1.64432e-08
0.3248 	1.0677e-08
0.3262 	3.42397e-09
0.3276 	1.98688e-09
0.3283 	1.44148e-09
0.3297 	5.05869e-10
0.3304 	2.41056e-10
0.3318 	4.88116e-11
0.3332 	1.54019e-11
0.3346 	7.34202e-12
0.336 	3.07921e-12
0.3374 	1.62114e-12
0.3381 	1.2457e-12
0.3388 	9.01156e-13
0.3395 	6.20445e-13
0.3402 	3.7683e-13
0.3409 	2.25953e-13
0.3423 	7.45915e-14
0.343 	4.90144e-14
0.3437 	3.34524e-14
0.3451 	1.79772e-14
0.3465 	8.89672e-15
0.3479 	3.85996e-15
0.3493 	1.50485e-15
0.3507 	5.34885e-16
0.3514 	2.83881e-16
0.3521 	1.69971e-16
0.3528 	8.73358e-17
0.3535 	4.64023e-17
0.3542 	2.34081e-17
0.3549 	1.03765e-17
0.3563 	1.98536e-18
0.3577 	4.14208e-19
0.3584 	2.16044e-19
0.3591 	9.41646e-20
0.3598 	4.85587e-20
0.3605 	2.65691e-20
0.3612 	1.4026e-20
0.3619 	9.01819e-21
0.3633 	3.13568e-21
0.3647 	9.57807e-22
0.3654 	4.92953e-22
0.3661 	2.34442e-22
0.3668 	1.19775e-22
0.3675 	4.4332e-23
0.3689 	9.16618e-24
0.3696 	4.61464e-24
0.3703 	1.61396e-24
0.371 	6.81095e-25
0.3717 	2.406e-25
0.3724 	7.39489e-26
0.3731 	2.87488e-26
0.3738 	5.35858e-27
0.3745 	2.4978e-27
0.3752 	3.99004e-28
0.3759 	2.05175e-28
0.3766 	1.22564e-27
0.3773 	3.46207e-27
0.378 	2.06442e-26
0.3794 	1.27239e-25
0.3801 	2.24685e-25
0.3808 	3.78214e-25
0.3815 	5.24385e-25
0.3829 	7.44321e-25
0.3836 	7.96582e-25
0.3843 	7.93044e-25
0.385 	7.74283e-25
0.3864 	5.71483e-25
0.3878 	3.02111e-25
0.3885 	1.96246e-25
0.3892 	1.2652e-25
0.3899 	7.68435e-26
0.3906 	5.22388e-26
0.3913 	3.26129e-26
0.392 	2.33426e-26
0.3934 	1.07035e-26
0.3941 	7.16442e-27
0.3948 	4.76448e-27
0.3955 	3.23693e-27
0.3962 	2.05834e-27
0.3969 	1.45726e-27
0.3976 	9.42252e-28
0.3983 	6.78922e-28
0.399 	4.63346e-28
0.3997 	3.33551e-28
0.4004 	2.38818e-28
0.4011 	1.70382e-28
0.4018 	1.25461e-28
0.4025 	8.69341e-29
0.4032 	6.45151e-29
0.4039 	4.4147e-29
0.4046 	3.12772e-29
0.4053 	2.09177e-29
0.4067 	9.11889e-30
0.4074 	5.56712e-30
0.4081 	3.63555e-30
0.4088 	2.04171e-30
0.4102 	7.26891e-31
0.4109 	4.37993e-31
0.4116 	2.39436e-31
0.4123 	1.31091e-31
0.413 	7.2952e-32
0.4137 	3.4896e-32
0.4144 	2.05274e-32
0.4151 	9.20792e-33
0.4165 	2.39291e-33
0.4172 	1.25004e-33
0.4179 	5.795e-34
0.4193 	1.30526e-34
0.42 	4.78335e-35
0.4207 	2.7497e-35
0.4214 	1.0536e-35
0.4221 	5.92762e-36
0.4228 	2.91427e-36
0.4235 	2.02763e-36
0.4242 	1.68642e-36
0.4249 	1.64779e-36
0.4256 	1.82126e-36
0.4263 	2.02984e-36
0.427 	2.23521e-36
0.4277 	2.40162e-36
0.4284 	2.47065e-36
0.4291 	2.46339e-36
0.4298 	2.37993e-36
0.4305 	2.1501e-36
0.4312 	1.86171e-36
0.4319 	1.47477e-36
0.4326 	1.09297e-36
0.4333 	7.87351e-37
0.434 	5.3197e-37
0.4347 	3.669e-37
0.4354 	2.51745e-37
0.4361 	1.74027e-37
0.4368 	1.2792e-37
0.4375 	9.04203e-38
0.4382 	7.0193e-38
0.4389 	5.17123e-38
0.4396 	3.96314e-38
0.4403 	2.95208e-38
0.441 	2.20372e-38
0.4417 	1.64247e-38
0.4424 	1.18515e-38
0.4431 	8.8687e-39
0.4438 	6.23246e-39
0.4452 	3.27255e-39
0.4466 	1.67519e-39
0.4473 	1.17371e-39
0.448 	8.34431e-40
0.4487 	5.60035e-40
0.4494 	4.0398e-40
0.4501 	2.67019e-40
0.4508 	1.89951e-40
0.4515 	1.26249e-40
0.4522 	8.66176e-41
0.4529 	5.82063e-41
0.4536 	3.82098e-41
0.4543 	2.61467e-41
0.4557 	1.14475e-41
0.4564 	7.18514e-42
0.4571 	4.90227e-42
0.4578 	3.14081e-42
0.4585 	2.07454e-42
0.4599 	8.83093e-43
0.4606 	6.15426e-43
0.4613 	3.93908e-43
0.462 	2.83303e-43
0.4627 	1.88354e-43
0.4634 	1.32546e-43
0.4641 	8.9978e-44
0.4648 	6.06398e-44
0.4655 	4.12074e-44
0.4662 	2.57372e-44
0.4669 	1.7404e-44
0.4683 	6.605e-45
0.469 	3.74458e-45
0.4697 	2.22816e-45
0.4704 	1.24715e-45
0.4711 	6.6771e-46
0.4718 	3.83253e-46
0.4725 	1.79064e-46
0.4732 	1.1116e-46
0.4739 	5.31164e-47
0.4746 	3.11671e-47
0.4753 	1.55875e-47
0.476 	8.50071e-48
0.4767 	4.48991e-48
0.4781 	1.22787e-48
0.4788 	5.28445e-49
0.4795 	3.0554e-49
0.4802 	1.28615e-49
0.4809 	6.66435e-50
0.4816 	2.78687e-50
0.4823 	1.23165e-50
0.483 	5.36379e-51
0.4837 	1.85095e-51
0.4851 	2.92341e-52
0.4858 	1.55942e-52
0.4865 	6.02374e-53
0.4872 	3.78494e-53
0.4879 	3.69892e-53
0.4886 	5.22747e-53
0.4893 	1.41208e-52
0.49 	2.5022e-52
0.4907 	4.58042e-52
0.4921 	8.23913e-52
0.4928 	9.4139e-52
0.4942 	9.71392e-52
0.4949 	9.09013e-52
0.4963 	5.53532e-52
0.497 	3.60092e-52
0.4977 	1.95823e-52
0.4984 	1.04479e-52
0.4991 	4.60429e-53
0.4998 	2.04821e-53
0.5005 	9.03961e-54
0.5012 	3.24451e-54
0.5019 	1.65711e-54
0.5026 	5.34038e-55
0.5033 	2.65706e-55
0.504 	7.67328e-56
0.5047 	3.03123e-56
0.5054 	7.31106e-57
0.5061 	1.87441e-57
0.5068 	4.12872e-58
0.5082 	1.76762e-59
0.5096 	4.00401e-60
0.5103 	2.81946e-60
0.511 	1.98349e-60
0.5117 	1.39556e-60
0.5124 	9.45353e-61
0.5131 	6.7774e-61
0.5138 	4.48502e-61
0.5145 	3.22211e-61
0.5152 	2.13182e-61
0.5159 	1.47312e-61
0.5166 	9.75579e-62
0.5173 	6.39065e-62
0.518 	4.24195e-62
0.5187 	2.57984e-62
0.5194 	1.73128e-62
0.5201 	1.00717e-62
0.5208 	6.54751e-63
0.5215 	3.75105e-63
0.5222 	2.26462e-63
0.5229 	1.29226e-63
0.5236 	7.05462e-64
0.5243 	4.09754e-64
0.525 	1.93489e-64
0.5257 	1.19096e-64
0.5271 	3.15829e-65
0.5285 	7.59592e-66
0.5292 	3.69414e-66
0.5299 	1.63747e-66
0.5306 	8.65697e-67
0.5313 	3.37447e-67
0.5327 	7.73856e-68
0.5341 	1.72194e-68
0.5355 	3.67861e-69
0.5362 	1.39865e-69
0.5369 	7.31859e-70
0.5376 	2.49429e-70
0.5383 	1.28593e-70
0.539 	4.2355e-71
0.5397 	1.83841e-71
0.5404 	5.83682e-72
0.5411 	1.85736e-72
0.5418 	6.04283e-73
0.5425 	9.46433e-74
0.5432 	5.02492e-74
0.5439 	1.2954e-73
0.5453 	1.40434e-71
0.546 	4.4559e-71
0.5467 	1.59931e-70
0.5474 	3.22477e-70
0.5488 	7.73282e-70
0.5502 	8.75925e-70
0.5509 	6.87536e-70
0.5516 	4.71738e-70
0.5523 	2.28424e-70
0.553 	1.03712e-70
0.5537 	2.64395e-71
0.5544 	1.02068e-71
0.5551 	9.87953e-74
0.5565 	-2.41563e-72
0.5579 	-2.96965e-72
0.5586 	-3.07717e-72
0.5593 	-3.14404e-72
0.56 	-3.19982e-72
0.5607 	-3.24714e-72
0.5614 	-3.29423e-72
0.5621 	-3.3405e-72
0.5628 	-3.3865e-72
0.5642 	-3.4773e-72
0.5649 	-3.52221e-72
0.5656 	-3.56641e-72
0.5663 	-3.6104e-72
0.567 	-3.65331e-72
0.5677 	-3.69568e-72
0.5684 	-3.73668e-72
0.5691 	-3.77606e-72
0.5698 	-3.81384e-72
0.5705 	-3.84827e-72
0.5712 	-3.88137e-72
0.5726 	-3.93168e-72
0.574 	-3.95461e-72
0.5754 	-3.93569e-72
0.5768 	-3.85116e-72
0.5782 	-3.69175e-72
0.5796 	-3.48853e-72
0.5803 	-3.37865e-72
0.581 	-3.26393e-72
0.5817 	-3.14566e-72
0.5824 	-3.0254e-72
0.5831 	-2.90233e-72
0.5838 	-2.77868e-72
0.5845 	-2.6537e-72
0.5852 	-2.5288e-72
0.5859 	-2.40408e-72
0.5866 	-2.28023e-72
0.5873 	-2.15725e-72
0.588 	-2.03654e-72
0.5887 	-1.91676e-72
0.5894 	-1.80103e-72
0.5901 	-1.68639e-72
0.5908 	-1.57646e-72
0.5915 	-1.4688e-72
0.5922 	-1.3652e-72
0.5936 	-1.16913e-72
0.5943 	-1.07852e-72
0.595 	-9.8952e-73
0.5957 	-9.08382e-73
0.5964 	-8.28952e-73
0.5971 	-7.55776e-73
0.5978 	-6.86006e-73
0.5985 	-6.20775e-73
0.5992 	-5.60514e-73
0.5999 	-5.0301e-73
0.6006 	-4.5187e-73
0.6013 	-4.0229e-73
0.602 	-3.59191e-73
0.6027 	-3.17943e-73
0.6034 	-2.81321e-73
0.6041 	-2.47647e-73
0.6048 	-2.16921e-73
0.6055 	-1.89976e-73
0.6062 	-1.64544e-73
0.6069 	-1.43443e-73
0.6076 	-1.23253e-73
0.6083 	-1.06529e-73
0.609 	-9.10342e-74
0.6097 	-7.77514e-74
0.6104 	-6.61164e-74
0.6111 	-5.57173e-74
0.6118 	-4.71848e-74
0.6125 	-3.91609e-74
0.6132 	-3.3062e-74
0.6146 	-2.27264e-74
0.6153 	-1.86756e-74
0.616 	-1.5311e-74
0.6167 	-1.25406e-74
0.6174 	-1.01001e-74
0.6181 	-8.25824e-75
0.6195 	-5.32974e-75
0.6209 	-3.36869e-75
0.6216 	-2.6585e-75
0.623 	-1.64447e-75
0.6244 	-9.96916e-76
0.6258 	-5.91852e-76
0.6265 	-4.48728e-76
0.6272 	-3.43791e-76
0.6279 	-2.61117e-76
0.6286 	-1.95141e-76
0.6293 	-1.48909e-76
0.63 	-1.08059e-76
0.6307 	-8.31499e-77
0.6314 	-6.03744e-77
0.6321 	-4.5416e-77
0.6328 	-3.30769e-77
0.6335 	-2.42301e-77
0.6342 	-1.77582e-77
0.6349 	-1.2605e-77
0.6356 	-9.33488e-78
0.637 	-4.80013e-78
0.637699 	-3.34211e-78
0.6384 	-2.41166e-78
0.6398 	-1.18229e-78
0.6405 	-8.39989e-79
0.6412 	-5.64654e-79
0.6419 	-4.0887e-79
0.6426 	-2.72221e-79
0.6433 	-1.95247e-79
0.644 	-1.31517e-79
0.6454 	-6.28358e-80
0.6461 	-4.23896e-80
0.6468 	-2.98492e-80
0.6475 	-1.94646e-80
0.6482 	-1.42178e-80
0.6489 	-9.52704e-81
0.6496 	-6.87509e-81
0.6503 	-4.78046e-81
0.651 	-3.42892e-81
0.6517 	-2.49505e-81
0.6531 	-1.37073e-81
0.6538 	-1.00668e-81
0.6545 	-7.96594e-82
0.6552 	-6.11257e-82
0.6559 	-4.87793e-82
0.6566 	-3.87875e-82
0.6573 	-3.11491e-82
0.658 	-2.54328e-82
0.6587 	-2.04854e-82
0.6601 	-1.38712e-82
0.6608 	-1.15804e-82
0.6622 	-7.92741e-83
0.6636 	-5.44865e-83
0.6643 	-4.56586e-83
0.665 	-3.75289e-83
0.6664 	-2.6233e-83
0.6671 	-2.20508e-83
0.6678 	-1.83717e-83
0.6685 	-1.53635e-83
0.6692 	-1.28961e-83
0.6699 	-1.07288e-83
0.6706 	-9.07811e-84
0.6713 	-7.54451e-84
0.672 	-6.41193e-84
0.6727 	-5.36781e-84
0.6734 	-4.54483e-84
0.6741 	-3.83297e-84
0.6748 	-3.23213e-84
0.6762 	-2.30441e-84
0.6776 	-1.65717e-84
0.679 	-1.19624e-84
0.6804 	-8.62337e-85
0.6818 	-6.19636e-85
0.6832 	-4.42719e-85
0.6846 	-3.13584e-85
0.686 	-2.19579e-85
0.6874 	-1.51865e-85
0.6888 	-1.04507e-85
0.6902 	-7.25187e-86
0.6916 	-5.02679e-86
0.6923 	-4.09813e-86
0.6937 	-2.351e-86
0.6951 	-1.0446e-86
0.6965 	-2.67744e-87
0.6972 	-8.06972e-88
0.6979 	-3.49848e-95
0.6993 	-4.78548e-96
0.7 	-1.11526e-111
