0 	1
0.0007 	1
0.0014 	1
0.0021 	1
0.0028 	1
0.0035 	1
0.0042 	1
0.0049 	1
0.0056 	1
0.0063 	1
0.007 	1
0.0077 	1
0.0084 	1
0.0091 	1
0.0098 	1
0.0105 	1
0.0112 	1
0.0119 	1
0.0126 	1
0.0133 	1
0.014 	1
0.0147 	1
0.0154 	1
0.0161 	1
0.0168 	1
0.0175 	1
0.0182 	1
0.0189 	1
0.0196 	1
0.0203 	1
0.021 	1
0.0217 	1
0.0224 	1
0.0231 	1
0.0238 	1
0.0245 	1
0.0252 	1
0.0259 	1
0.0266 	1
0.0273 	1
0.028 	1
0.0287 	1
0.0294 	1
0.0301 	1
0.0308 	1
0.0315 	1
0.0322 	1
0.0329 	1
0.0336 	1
0.0343 	1
0.035 	1
0.0357 	1
0.0364 	1
0.0371 	1
0.0378 	1
0.0385 	1
0.0392 	1
0.0399 	1
0.0406 	1
0.0413 	1
0.042 	1
0.0427 	1
0.0434 	1
0.0441 	1
0.0448 	1
0.0455 	1
0.0462 	1
0.0469 	1
0.0476 	1
0.0483 	1
0.049 	1
0.0497 	1
0.0504 	1
0.0511 	1
0.0518 	1
0.0525 	1
0.0532 	1
0.0539 	1
0.0546 	1
0.0553 	1
0.056 	1
0.0567 	1
0.0574 	1
0.0581 	1
0.0588 	1
0.0595 	1
0.0602 	1
0.0609 	1
0.0616 	1
0.0623 	1
0.063 	1
0.0637 	1
0.0644 	1
0.0651 	1
0.0658 	1
0.0665 	1
0.0672 	1
0.0679 	1
0.0686 	1
0.0693 	1
0.07 	1
0.0707 	1
0.0714 	1
0.0721 	1
0.0728 	1
0.0735 	1
0.0742 	1
0.0749 	1
0.0756 	1
0.0763 	1
0.077 	1
0.0777 	1
0.0784 	1
0.0791 	1
0.0798 	1
0.0805 	1
0.0812 	1
0.0819 	1
0.0826 	1
0.0833 	1
0.084 	1
0.0847 	1
0.0854 	1
0.0861 	1
0.0868 	1
0.0875 	1
0.0882 	1
0.0889 	1
0.0896 	1
0.0903 	1
0.091 	1
0.0917 	1
0.0924 	1
0.0931 	1
0.0938 	1
0.0945 	1
0.0952 	1
0.0959 	1
0.0966 	1
0.0973 	1
0.098 	1
0.0987 	1
0.0994 	1
0.1001 	1
0.1008 	1
0.1015 	1
0.1022 	1
0.1029 	1
0.1036 	1
0.1043 	1
0.105 	1
0.1057 	1
0.1064 	1
0.1071 	1
0.1078 	1
0.1085 	1
0.1092 	1
0.1099 	1
0.1106 	1
0.1113 	1
0.112 	1
0.1127 	1
0.1134 	1
0.1141 	1
0.1148 	1
0.1155 	1
0.1162 	1
0.1169 	1
0.1176 	1
0.1183 	1
0.119 	1
0.1197 	1
0.1204 	1
0.1211 	1
0.1218 	1
0.1225 	1
0.1232 	1
0.1239 	1
0.1246 	1
0.1253 	1
0.126 	1
0.1267 	1
0.1274 	1
0.1281 	1
0.1288 	1
0.1295 	1
0.1302 	1
0.1309 	1
0.1316 	1
0.1323 	1
0.133 	1
0.1337 	1
0.1344 	1
0.1351 	1
0.1358 	1
0.1365 	1
0.1372 	1
0.1379 	1
0.1386 	1
0.1393 	1
0.14 	1
0.1407 	1
0.1414 	1
0.1421 	1
0.1428 	1
0.1435 	1
0.1442 	1
0.1449 	1
0.1456 	1
0.1463 	1
0.147 	1
0.1477 	1
0.1484 	1
0.1491 	1
0.1498 	1
0.1505 	1
0.1512 	1
0.1519 	1
0.1526 	1
0.1533 	1
0.154 	1
0.1547 	1
0.1554 	1
0.1561 	1
0.1568 	1
0.1575 	1
0.1582 	1
0.1589 	1
0.1596 	1
0.1603 	1
0.161 	1
0.1617 	1
0.1624 	1
0.1631 	1
0.1638 	1
0.1645 	1
0.1652 	1
0.1659 	1
0.1666 	1
0.1673 	1
0.168 	1
0.1687 	1
0.1694 	1
0.1701 	1
0.1708 	1
0.1715 	1
0.1722 	1
0.1729 	1
0.1736 	1
0.1743 	1
0.175 	1
0.1757 	1
0.1764 	1
0.1771 	1
0.1778 	1
0.1785 	1
0.1792 	1
0.1799 	1
0.1806 	1
0.1813 	1
0.182 	1
0.1827 	1
0.1834 	1
0.1841 	1
0.1848 	1
0.1855 	1
0.1862 	1
0.1869 	1
0.1876 	1
0.1883 	1
0.189 	1
0.1897 	1
0.1904 	1
0.1911 	1
0.1918 	1
0.1925 	1
0.1932 	1
0.1939 	1
0.1946 	1
0.1953 	1
0.196 	1
0.1967 	1
0.1974 	1
0.1981 	1
0.1988 	1
0.1995 	1
0.2002 	1
0.2009 	1
0.2016 	1
0.2023 	1
0.203 	1
0.2037 	1
0.2044 	1
0.2051 	1
0.2058 	1
0.2065 	1
0.2072 	1
0.2079 	1
0.2086 	1
0.2093 	1
0.21 	1
0.2107 	1
0.2114 	1
0.2121 	1
0.2128 	1
0.2135 	1
0.2142 	1
0.2149 	1
0.2156 	1
0.2163 	1
0.217 	1
0.2177 	1
0.2184 	1
0.2191 	1
0.2198 	1
0.2205 	1
0.2212 	1
0.2219 	1
0.2226 	1
0.2233 	1
0.224 	1
0.2247 	1
0.2254 	1
0.2261 	1
0.2268 	1
0.2275 	1
0.2282 	1
0.2289 	1
0.2296 	1
0.2303 	1
0.231 	1
0.2317 	0.999999
0.2324 	0.999999
0.2331 	0.999999
0.2338 	0.999999
0.2345 	0.999999
0.2352 	0.999998
0.2359 	0.999996
0.2366 	0.999994
0.2373 	0.999992
0.238 	0.99999
0.2387 	0.999988
0.2394 	0.999986
0.2401 	0.999981
0.2408 	0.999958
0.2415 	0.999934
0.2422 	0.99991
0.2429 	0.999886
0.2436 	0.999862
0.2443 	0.999839
0.245 	0.999815
0.2457 	0.999424
0.2464 	0.999033
0.2471 	0.998643
0.2478 	0.998252
0.2485 	0.997862
0.2492 	0.997471
0.2499 	0.99708
0.2506 	0.989135
0.2513 	0.97993
0.252 	0.970726
0.2527 	0.961523
0.2534 	0.95232
0.2541 	0.943117
0.2548 	0.933914
0.2555 	0.8981
0.2562 	0.851643
0.2569 	0.805189
0.2576 	0.758735
0.2583 	0.712281
0.259 	0.665827
0.2597 	0.619374
0.2604 	0.565994
0.2611 	0.507433
0.2618 	0.448872
0.2625 	0.390309
0.2632 	0.331747
0.2639 	0.273185
0.2646 	0.214623
0.2653 	0.171259
0.266 	0.14815
0.2667 	0.12504
0.2674 	0.101928
0.2681 	0.0788159
0.2688 	0.0557041
0.2695 	0.0325922
0.2702 	0.0154552
0.2709 	0.0132453
0.2716 	0.0110351
0.2723 	0.00882463
0.273 	0.00661413
0.2737 	0.00440364
0.2744 	0.00219315
0.2751 	0.000292767
0.2758 	0.000251068
0.2765 	0.000209363
0.2772 	0.000167649
0.2779 	0.000125934
0.2786 	8.42194e-05
0.2793 	4.25047e-05
0.28 	7.95506e-07
0.2807 	6.84206e-07
0.2814 	5.72894e-07
0.2821 	4.61539e-07
0.2828 	3.50185e-07
0.2835 	2.3883e-07
0.2842 	1.27476e-07
0.2849 	1.61214e-08
0.2856 	2.02955e-10
0.2863 	1.73432e-10
0.287 	1.4389e-10
0.2877 	1.14348e-10
0.2884 	8.48056e-11
0.2891 	5.52636e-11
0.2898 	2.57215e-11
0.2905 	1.75125e-11
0.2912 	1.78309e-11
0.2919 	1.8149e-11
0.2926 	1.84671e-11
0.2933 	1.87852e-11
0.294 	1.91033e-11
0.2947 	1.94214e-11
0.2954 	1.93554e-11
0.2961 	1.90014e-11
0.2968 	1.86477e-11
0.2975 	1.82941e-11
0.2982 	1.79405e-11
0.2989 	1.75869e-11
0.2996 	1.72333e-11
0.3003 	1.66072e-11
0.301 	1.5618e-11
0.3017 	1.46292e-11
0.3024 	1.36408e-11
0.3031 	1.26524e-11
0.3038 	1.16639e-11
0.3045 	1.06755e-11
0.3052 	9.70182e-12
0.3059 	8.76525e-12
0.3066 	7.8288e-12
0.3073 	6.89249e-12
0.308 	5.95617e-12
0.3087 	5.01985e-12
0.3094 	4.08353e-12
0.3101 	3.22597e-12
0.3108 	2.84045e-12
0.3115 	2.45486e-12
0.3122 	2.06916e-12
0.3129 	1.68345e-12
0.3136 	1.29775e-12
0.3143 	9.12046e-13
0.315 	5.26396e-13
0.3157 	4.61788e-13
0.3164 	3.9716e-13
0.3171 	3.32451e-13
0.3178 	2.67743e-13
0.3185 	2.03034e-13
0.3192 	1.38325e-13
0.3199 	7.36162e-14
0.3206 	5.85689e-14
0.3213 	5.17873e-14
0.322 	4.49883e-14
0.3227 	3.81892e-14
0.3234 	3.13902e-14
0.3241 	2.45911e-14
0.3248 	1.77921e-14
0.3255 	1.46781e-14
0.3262 	1.30374e-14
0.3269 	1.13917e-14
0.3276 	9.74564e-15
0.3283 	8.09958e-15
0.329 	6.45352e-15
0.3297 	4.80746e-15
0.3304 	3.82613e-15
0.3311 	3.34312e-15
0.3318 	2.85868e-15
0.3325 	2.37386e-15
0.3332 	1.88903e-15
0.3339 	1.4042e-15
0.3346 	9.19376e-16
0.3353 	6.06494e-16
0.336 	5.22733e-16
0.3367 	4.38738e-16
0.3374 	3.54613e-16
0.3381 	2.70488e-16
0.3388 	1.86363e-16
0.3395 	1.02237e-16
0.3402 	4.05158e-17
0.3409 	3.47601e-17
0.3416 	2.899e-17
0.3423 	2.32056e-17
0.343 	1.74212e-17
0.3437 	1.16368e-17
0.3444 	5.85236e-18
0.3451 	8.77567e-19
0.3458 	7.54418e-19
0.3465 	6.31017e-19
0.3472 	5.07164e-19
0.3479 	3.8331e-19
0.3486 	2.59457e-19
0.3493 	1.35604e-19
0.35 	1.1769e-20
0.3507 	1.01911e-20
0.3514 	8.61045e-21
0.3521 	7.01965e-21
0.3528 	5.42886e-21
0.3535 	3.83806e-21
0.3542 	2.24727e-21
0.3549 	6.56473e-22
0.3556 	3.80356e-22
0.3563 	3.23037e-22
0.357 	2.65096e-22
0.3577 	2.07155e-22
0.3584 	1.49215e-22
0.3591 	9.12742e-23
0.3598 	3.33336e-23
0.3605 	1.51551e-23
0.3612 	1.28695e-23
0.3619 	1.05544e-23
0.3626 	8.23708e-24
0.3633 	5.91976e-24
0.364 	3.60244e-24
0.3647 	1.28511e-24
0.3654 	2.69316e-25
0.3661 	2.29029e-25
0.3668 	1.88255e-25
0.3675 	1.47348e-25
0.3682 	1.06441e-25
0.3689 	6.55339e-26
0.3696 	2.46268e-26
0.3703 	1.1833e-27
0.371 	1.00948e-27
0.3717 	8.33802e-28
0.3724 	6.57101e-28
0.3731 	4.804e-28
0.3738 	3.03699e-28
0.3745 	1.26998e-28
0.3752 	7.79659e-31
0.3759 	6.67486e-31
0.3766 	5.54339e-31
0.3773 	4.40219e-31
0.378 	3.26098e-31
0.3787 	2.11978e-31
0.3794 	9.78571e-32
0.3801 	5.67339e-35
0.3808 	4.87371e-35
0.3815 	4.069e-35
0.3822 	3.25524e-35
0.3829 	2.44148e-35
0.3836 	1.62772e-35
0.3843 	8.13957e-36
0.385 	3.2728e-39
0.3857 	2.82042e-39
0.3864 	2.36639e-39
0.3871 	1.90628e-39
0.3878 	1.44617e-39
0.3885 	9.86061e-40
0.3892 	5.25951e-40
0.3899 	6.58412e-41
0.3906 	1.64509e-43
0.3913 	1.38677e-43
0.392 	1.12442e-43
0.3927 	8.62071e-44
0.3934 	5.9972e-44
0.3941 	3.37369e-44
0.3948 	7.50182e-45
0.3955 	9.38088e-48
0.3962 	7.9418e-48
0.3969 	6.4803e-48
0.3976 	5.01708e-48
0.3983 	3.55386e-48
0.399 	2.09065e-48
0.3997 	6.27427e-49
0.4004 	5.3127e-52
0.4011 	4.51526e-52
0.4018 	3.70723e-52
0.4025 	2.89632e-52
0.4032 	2.0854e-52
0.4039 	1.27449e-52
0.4046 	4.63575e-53
0.4053 	3.11848e-56
0.406 	2.66046e-56
0.4067 	2.19728e-56
0.4074 	1.73121e-56
0.4081 	1.26515e-56
0.4088 	7.99094e-57
0.4095 	3.33033e-57
0.4102 	2.03297e-60
0.4109 	1.74092e-60
0.4116 	1.44605e-60
0.4123 	1.14836e-60
0.413 	8.50663e-61
0.4137 	5.5297e-61
0.4144 	2.55277e-61
0.4151 	1.5883e-64
0.4158 	1.36521e-64
0.4165 	1.14035e-64
0.4172 	9.12301e-65
0.4179 	6.84254e-65
0.4186 	4.56206e-65
0.4193 	2.28159e-65
0.42 	1.51292e-68
0.4207 	1.30504e-68
0.4214 	1.09605e-68
0.4221 	8.82953e-69
0.4228 	6.69857e-69
0.4235 	4.5676e-69
0.4242 	2.43663e-69
0.4249 	3.05668e-70
0.4256 	1.42203e-72
0.4263 	1.20048e-72
0.427 	9.73389e-73
0.4277 	7.46297e-73
0.4284 	5.19206e-73
0.4291 	2.92115e-73
0.4298 	6.50236e-74
0.4305 	1.62216e-76
0.4312 	1.37557e-76
0.4319 	1.1226e-76
0.4326 	8.69147e-77
0.4333 	6.15691e-77
0.434 	3.62235e-77
0.4347 	1.08779e-77
0.4354 	1.83524e-80
0.4361 	1.56222e-80
0.4368 	1.2832e-80
0.4375 	1.00254e-80
0.4382 	7.21871e-81
0.4389 	4.41207e-81
0.4396 	1.60543e-81
0.4403 	2.00914e-84
0.441 	1.71644e-84
0.4417 	1.4185e-84
0.4424 	1.11764e-84
0.4431 	8.16784e-85
0.4438 	5.15925e-85
0.4445 	2.15066e-85
0.4452 	2.10995e-88
0.4459 	1.80878e-88
0.4466 	1.50345e-88
0.4473 	1.19395e-88
0.448 	8.84446e-89
0.4487 	5.74946e-89
0.4494 	2.65447e-89
0.4501 	2.12017e-92
0.4508 	1.82364e-92
0.4515 	1.52407e-92
0.4522 	1.219e-92
0.4529 	9.13938e-93
0.4536 	6.08875e-93
0.4543 	3.03811e-93
0.455 	-1.19735e-95
0.4557 	-3.03056e-95
0.4564 	-4.47736e-95
0.4571 	-4.50614e-95
0.4578 	-4.53492e-95
0.4585 	-4.56369e-95
0.4592 	-4.59247e-95
0.4599 	-4.62125e-95
0.4606 	-6.12637e-95
0.4613 	-7.75282e-95
0.462 	-7.75311e-95
0.4627 	-7.7534e-95
0.4634 	-7.75369e-95
0.4641 	-7.75398e-95
0.4648 	-7.75426e-95
0.4655 	-8.42299e-95
0.4662 	-9.35933e-95
0.4669 	-9.42646e-95
0.4676 	-9.42673e-95
0.4683 	-9.427e-95
0.469 	-9.42727e-95
0.4697 	-9.42754e-95
0.4704 	-9.40551e-95
0.4711 	-9.36675e-95
0.4718 	-9.35855e-95
0.4725 	-9.35868e-95
0.4732 	-9.35881e-95
0.4739 	-9.35895e-95
0.4746 	-9.35908e-95
0.4753 	-9.03066e-95
0.476 	-8.26386e-95
0.4767 	-7.98998e-95
0.4774 	-7.98996e-95
0.4781 	-7.98994e-95
0.4788 	-7.98992e-95
0.4795 	-7.9899e-95
0.4802 	-7.67751e-95
0.4809 	-6.58348e-95
0.4816 	-6.03641e-95
0.4823 	-6.03628e-95
0.483 	-6.03615e-95
0.4837 	-6.03602e-95
0.4844 	-6.03589e-95
0.4851 	-5.88199e-95
0.4858 	-4.80406e-95
0.4865 	-4.11105e-95
0.4872 	-4.11088e-95
0.4879 	-4.1107e-95
0.4886 	-4.11053e-95
0.4893 	-4.11036e-95
0.49 	-4.11022e-95
0.4907 	-3.24076e-95
0.4914 	-2.55749e-95
0.4921 	-2.55732e-95
0.4928 	-2.55716e-95
0.4935 	-2.55699e-95
0.4942 	-2.55683e-95
0.4949 	-2.55666e-95
0.4956 	-2.03417e-95
0.4963 	-1.46803e-95
0.497 	-1.4679e-95
0.4977 	-1.46777e-95
0.4984 	-1.46764e-95
0.4991 	-1.46751e-95
0.4998 	-1.46738e-95
0.5005 	-1.19396e-95
0.5012 	-8.11128e-96
0.5019 	-7.837e-96
0.5026 	-7.83612e-96
0.5033 	-7.83524e-96
0.504 	-7.83436e-96
0.5047 	-7.83348e-96
0.5054 	-6.58055e-96
0.5061 	-4.38787e-96
0.5068 	-3.91758e-96
0.5075 	-3.91704e-96
0.5082 	-3.9165e-96
0.5089 	-3.91597e-96
0.5096 	-3.91543e-96
0.5103 	-3.41822e-96
0.511 	-2.25829e-96
0.5117 	-1.84384e-96
0.5124 	-1.84354e-96
0.5131 	-1.84324e-96
0.5138 	-1.84294e-96
0.5145 	-1.84264e-96
0.5152 	-1.6791e-96
0.5159 	-1.10709e-96
0.5166 	-8.21011e-97
0.5173 	-8.20857e-97
0.518 	-8.20703e-97
0.5187 	-8.20548e-97
0.5194 	-8.20394e-97
0.5201 	-7.82474e-97
0.5208 	-5.17609e-97
0.5215 	-3.47312e-97
0.5222 	-3.47238e-97
0.5229 	-3.47164e-97
0.5236 	-3.4709e-97
0.5243 	-3.47016e-97
0.525 	-3.46945e-97
0.5257 	-2.31125e-97
0.5264 	-1.40101e-97
0.5271 	-1.40068e-97
0.5278 	-1.40035e-97
0.5285 	-1.40001e-97
0.5292 	-1.39968e-97
0.5299 	-1.39935e-97
0.5306 	-9.87218e-98
0.5313 	-5.40684e-98
0.532 	-5.40544e-98
0.5327 	-5.40403e-98
0.5334 	-5.40262e-98
0.5341 	-5.40121e-98
0.5348 	-5.3998e-98
0.5355 	-4.04072e-98
0.5362 	-2.13806e-98
0.5369 	-2.00163e-98
0.5376 	-2.00106e-98
0.5383 	-2.00049e-98
0.539 	-1.99993e-98
0.5397 	-1.99936e-98
0.5404 	-1.58774e-98
0.5411 	-8.6757e-99
0.5418 	-7.13079e-99
0.5425 	-7.12862e-99
0.5432 	-7.12646e-99
0.5439 	-7.12429e-99
0.5446 	-7.12213e-99
0.5453 	-6.00032e-99
0.546 	-3.38447e-99
0.5467 	-2.44973e-99
0.5474 	-2.44894e-99
0.5481 	-2.44815e-99
0.5488 	-2.44735e-99
0.5495 	-2.44656e-99
0.5502 	-2.18493e-99
0.5509 	-1.27059e-99
0.5516 	-8.13277e-100
0.5523 	-8.13e-100
0.553 	-8.12722e-100
0.5537 	-8.12445e-100
0.5544 	-8.12167e-100
0.5551 	-7.67945e-100
0.5558 	-4.59637e-100
0.5565 	-2.61405e-100
0.5572 	-2.61312e-100
0.5579 	-2.61218e-100
0.5586 	-2.61125e-100
0.5593 	-2.61031e-100
0.56 	-2.60939e-100
0.5607 	-1.60456e-100
0.5614 	-8.14835e-101
0.5621 	-8.14531e-101
0.5628 	-8.14228e-101
0.5635 	-8.13924e-101
0.5642 	-8.1362e-101
0.5649 	-8.13316e-101
0.5656 	-5.41347e-101
0.5663 	-2.46687e-101
0.567 	-2.46592e-101
0.5677 	-2.46496e-101
0.5684 	-2.46401e-101
0.5691 	-2.46305e-101
0.5698 	-2.4621e-101
0.5705 	-1.76772e-101
0.5712 	-7.957e-102
0.5719 	-7.26001e-102
0.5726 	-7.2571e-102
0.5733 	-7.2542e-102
0.574 	-7.2513e-102
0.5747 	-7.2484e-102
0.5754 	-5.59461e-102
0.5761 	-2.70165e-102
0.5768 	-2.08106e-102
0.5775 	-2.0802e-102
0.5782 	-2.07934e-102
0.5789 	-2.07849e-102
0.5796 	-2.07763e-102
0.5803 	-1.71832e-102
0.581 	-8.80691e-103
0.5817 	-5.81379e-103
0.5824 	-5.81134e-103
0.5831 	-5.80888e-103
0.5838 	-5.80643e-103
0.5845 	-5.80398e-103
0.5852 	-5.12782e-103
0.5859 	-2.76574e-103
0.5866 	-1.58435e-103
0.5873 	-1.58367e-103
0.588 	-1.58299e-103
0.5887 	-1.5823e-103
0.5894 	-1.58162e-103
0.5901 	-1.4884e-103
0.5908 	-8.39027e-104
0.5915 	-4.21509e-104
0.5922 	-4.21323e-104
0.5929 	-4.21138e-104
0.5936 	-4.20952e-104
0.5943 	-4.20766e-104
0.595 	-4.20583e-104
0.5957 	-2.46428e-104
0.5964 	-1.09555e-104
0.5971 	-1.09506e-104
0.5978 	-1.09457e-104
0.5985 	-1.09408e-104
0.5992 	-1.09358e-104
0.5999 	-1.09309e-104
0.6006 	-7.02041e-105
0.6013 	-2.7837e-105
0.602 	-2.78243e-105
0.6027 	-2.78116e-105
0.6034 	-2.77989e-105
0.6041 	-2.77861e-105
0.6048 	-2.77734e-105
0.6055 	-1.94307e-105
0.6062 	-7.75278e-106
0.6069 	-6.91566e-106
0.6076 	-6.91244e-106
0.6083 	-6.90922e-106
0.609 	-6.906e-106
0.6097 	-6.90279e-106
0.6104 	-5.23188e-106
0.6111 	-2.30918e-106
0.6118 	-1.68226e-106
0.6125 	-1.68147e-106
0.6132 	-1.68067e-106
0.6139 	-1.67988e-106
0.6146 	-1.67908e-106
0.6153 	-1.37207e-106
0.616 	-6.56424e-107
0.6167 	-4.00713e-107
0.6174 	-4.00521e-107
0.6181 	-4.00328e-107
0.6188 	-4.00136e-107
0.6195 	-3.99943e-107
0.6202 	-3.50831e-107
0.6209 	-1.79299e-107
0.6216 	-9.35107e-108
0.6223 	-9.34651e-108
0.623 	-9.34195e-108
0.6237 	-9.33739e-108
0.6244 	-9.33283e-108
0.6251 	-8.75449e-108
0.6258 	-4.72784e-108
0.6265 	-2.1389e-108
0.6272 	-2.13785e-108
0.6279 	-2.13679e-108
0.6286 	-2.13573e-108
0.6293 	-2.13467e-108
0.63 	-2.13362e-108
0.6307 	-1.20757e-108
0.6314 	-4.79765e-109
0.6321 	-4.79525e-109
0.6328 	-4.79284e-109
0.6335 	-4.79043e-109
0.6342 	-4.78802e-109
0.6349 	-4.78562e-109
0.6356 	-2.99536e-109
0.6363 	-1.0558e-109
0.637 	-1.05526e-109
0.6377 	-1.05473e-109
0.6384 	-1.05419e-109
0.6391 	-1.05365e-109
0.6398 	-1.05312e-109
0.6405 	-7.23063e-110
0.6412 	-2.61073e-110
0.6419 	-2.27964e-110
0.6426 	-2.27847e-110
0.6433 	-2.27729e-110
0.644 	-2.27612e-110
0.6447 	-2.27494e-110
0.6454 	-1.70162e-110
0.6461 	-6.98824e-111
0.6468 	-4.83741e-111
0.6475 	-4.83489e-111
0.6482 	-4.83236e-111
0.6489 	-4.82984e-111
0.6496 	-4.82731e-111
0.6503 	-3.91025e-111
0.651 	-1.7728e-111
0.6517 	-1.00908e-111
0.6524 	-1.00855e-111
0.6531 	-1.00802e-111
0.6538 	-1.00749e-111
0.6545 	-1.00695e-111
0.6552 	-8.78733e-112
0.6559 	-4.30979e-112
0.6566 	-2.07047e-112
0.6573 	-2.06937e-112
0.658 	-2.06826e-112
0.6587 	-2.06716e-112
0.6594 	-2.06606e-112
0.6601 	-1.93349e-112
0.6608 	-1.01088e-112
0.6615 	-4.17698e-113
0.6622 	-4.17472e-113
0.6629 	-4.17247e-113
0.6636 	-4.17022e-113
0.6643 	-4.16797e-113
0.665 	-4.16573e-113
0.6657 	-2.29722e-113
0.6664 	-8.28722e-114
0.6671 	-8.2827e-114
0.6678 	-8.27819e-114
0.6685 	-8.27367e-114
0.6692 	-8.26916e-114
0.6699 	-8.26464e-114
0.6706 	-5.07426e-114
0.6713 	-1.61783e-114
0.672 	-1.61694e-114
0.6727 	-1.61605e-114
0.6734 	-1.61516e-114
0.6741 	-1.61427e-114
0.6748 	-1.61338e-114
0.6755 	-1.09234e-114
0.6762 	-3.63032e-115
0.6769 	-3.10779e-115
0.6776 	-3.10606e-115
0.6783 	-3.10433e-115
0.679 	-3.10261e-115
0.6797 	-3.10088e-115
0.6804 	-2.29669e-115
0.6811 	-8.90131e-116
0.6818 	-5.88467e-116
0.6825 	-5.88138e-116
0.6832 	-5.87809e-116
0.6839 	-5.8748e-116
0.6846 	-5.87151e-116
0.6853 	-4.72504e-116
0.686 	-2.05307e-116
0.6867 	-1.09839e-116
0.6874 	-1.09777e-116
0.6881 	-1.09716e-116
0.6888 	-1.09654e-116
0.6895 	-1.09592e-116
0.6902 	-9.52638e-117
0.6909 	-4.52343e-117
0.6916 	-2.02138e-117
0.6923 	-2.02024e-117
0.693 	-2.01909e-117
0.6937 	-2.01795e-117
0.6944 	-2.0168e-117
0.6951 	-1.90438e-117
0.6958 	-1.12319e-117
0.6965 	-6.2094e-118
0.6972 	-6.20763e-118
0.6979 	-6.20586e-118
0.6986 	-6.20409e-118
0.6993 	-6.20232e-118
0.7 	-6.20057e-118
