0 	1
0.0007 	1
0.0014 	1
0.0021 	1
0.0028 	1
0.0035 	1
0.0042 	1
0.0049 	1
0.0056 	1
0.0063 	1
0.007 	1
0.0077 	1
0.0084 	1
0.0091 	1
0.0098 	1
0.0105 	1
0.0112 	1
0.0119 	1
0.0126 	1
0.0133 	1
0.014 	1
0.0147 	1
0.0154 	1
0.0161 	1
0.0168 	1
0.0175 	1
0.0182 	1
0.0189 	1
0.0196 	1
0.0203 	1
0.021 	1
0.0217 	1
0.0224 	1
0.0231 	1
0.0238 	1
0.0245 	1
0.0252 	1
0.0259 	1
0.0266 	1
0.0273 	1
0.028 	1
0.0287 	1
0.0294 	1
0.0301 	1
0.0308 	1
0.0315 	1
0.0322 	1
0.0329 	1
0.0336 	1
0.0343 	1
0.035 	1
0.0357 	1
0.0364 	1
0.0371 	1
0.0378 	1
0.0385 	1
0.0392 	1
0.0399 	1
0.0406 	1
0.0413 	1
0.042 	1
0.0427 	1
0.0434 	1
0.0441 	1
0.0448 	1
0.0455 	1
0.0462 	1
0.0469 	1
0.0476 	1
0.0483 	1
0.049 	1
0.0497 	1
0.0504 	1
0.0511 	1
0.0518 	1
0.0525 	1
0.0532 	1
0.0539 	1
0.0546 	1
0.0553 	1
0.056 	1
0.0567 	1
0.0574 	1
0.0581 	1
0.0588 	1
0.0595 	1
0.0602 	1
0.0609 	1
0.0616 	1
0.0623 	1
0.063 	1
0.0637 	1
0.0644 	1
0.0651 	1
0.0658 	1
0.0665 	1
0.0672 	1
0.0679 	1
0.0686 	1
0.0693 	1
0.07 	1
0.0707 	1
0.0714 	1
0.0721 	1
0.0728 	1
0.0735 	1
0.0742 	1
0.0749 	1
0.0756 	1
0.0763 	1
0.077 	1
0.0777 	1
0.0784 	1
0.0791 	1
0.0798 	1
0.0805 	1
0.0812 	1
0.0819 	1
0.0826 	1
0.0833 	1
0.084 	1
0.0847 	1
0.0854 	1
0.0861 	1
0.0868 	1
0.0875 	1
0.0882 	1
0.0889 	1
0.0896 	1
0.0903 	1
0.091 	1
0.0917 	1
0.0924 	1
0.0931 	1
0.0938 	1
0.0945 	1
0.0952 	1
0.0959 	1
0.0966 	1
0.0973 	1
0.098 	1
0.0987 	1
0.0994 	1
0.1001 	1
0.1008 	1
0.1015 	1
0.1022 	1
0.1029 	1
0.1036 	1
0.1043 	1
0.105 	1
0.1057 	1
0.1064 	1
0.1071 	1
0.1078 	1
0.1085 	1
0.1092 	1
0.1099 	1
0.1106 	1
0.1113 	1
0.112 	1
0.1127 	1
0.1134 	1
0.1141 	1
0.1148 	1
0.1155 	1
0.1162 	1
0.1169 	1
0.1176 	1
0.1183 	1
0.119 	1
0.1197 	1
0.1204 	1
0.1211 	1
0.1218 	1
0.1225 	1
0.1232 	1
0.1239 	1
0.1246 	1
0.1253 	1
0.126 	1
0.1267 	1
0.1274 	1
0.1281 	1
0.1288 	1
0.1295 	1
0.1302 	1
0.1309 	1
0.1316 	1
0.1323 	1
0.133 	1
0.1337 	1
0.1344 	1
0.1351 	1
0.1358 	1
0.1365 	1
0.1372 	1
0.1379 	1
0.1386 	1
0.1393 	1
0.14 	1
0.1407 	1
0.1414 	1
0.1421 	1
0.1428 	1
0.1435 	1
0.1442 	1
0.1449 	1
0.1456 	1
0.1463 	1
0.147 	1
0.1477 	1
0.1484 	1
0.1491 	1
0.1498 	1
0.1505 	1
0.1512 	1
0.1519 	1
0.1526 	1
0.1533 	1
0.154 	1
0.1547 	1
0.1554 	1
0.1561 	1
0.1568 	1
0.1575 	1
0.1582 	1
0.1589 	1
0.1596 	1
0.1603 	1
0.161 	1
0.1617 	1
0.1624 	1
0.1631 	1
0.1638 	1
0.1645 	1
0.1652 	1
0.1659 	1
0.1666 	1
0.1673 	1
0.168 	1
0.1687 	1
0.1694 	1
0.1701 	1
0.1708 	1
0.1715 	1
0.1722 	1
0.1729 	1
0.1736 	1
0.1743 	1
0.175 	1
0.1757 	1
0.1764 	1
0.1771 	1
0.1778 	1
0.1785 	1
0.1792 	1
0.1799 	1
0.1806 	1
0.1813 	1
0.182 	1
0.1827 	1
0.1834 	1
0.1841 	1
0.1848 	1
0.1855 	1
0.1862 	1
0.1869 	1
0.1876 	1
0.1883 	1
0.189 	1
0.1897 	1
0.1904 	1
0.1911 	1
0.1918 	1
0.1925 	1
0.1932 	1
0.1939 	1
0.1946 	1
0.1953 	1
0.196 	1
0.1967 	1
0.1974 	1
0.1981 	1
0.1988 	1
0.1995 	1
0.2002 	1
0.2009 	1
0.2016 	0.999864
0.2023 	0.999571
0.2037 	0.991691
0.2051 	0.979672
0.2065 	0.986465
0.2079 	0.993472
0.2093 	0.990262
0.21 	0.98911
0.2114 	0.995428
0.2128 	0.999263
0.2142 	0.998789
0.2149 	0.998179
0.2156 	0.997362
0.2163 	0.996616
0.217 	0.997239
0.2184 	0.999024
0.2198 	0.999365
0.2212 	0.998157
0.2226 	0.997283
0.224 	0.997444
0.2254 	0.998361
0.2261 	0.999039
0.2275 	0.999884
0.2289 	0.999981
0.2303 	0.999985
0.2317 	0.999986
0.2324 	0.999986
0.2338 	0.999986
0.2352 	0.999974
0.2366 	0.99994
0.238 	0.999877
0.2394 	0.999776
0.2408 	0.999628
0.2422 	0.999456
0.2429 	0.999367
0.2443 	0.999041
0.245 	0.998767
0.2464 	0.997245
0.2478 	0.99547
0.2492 	0.993986
0.2506 	0.993622
0.2513 	0.993994
0.252 	0.994797
0.2534 	0.996521
0.2548 	0.998221
0.2562 	0.999206
0.2576 	0.999674
0.259 	0.999837
0.2604 	0.999883
0.2611 	0.999891
0.2625 	0.999897
0.2639 	0.99992
0.2653 	0.99996
0.2667 	0.999989
0.2681 	0.999995
0.2688 	0.999994
0.2702 	0.999992
0.2716 	0.999993
0.273 	0.999995
0.2737 	0.999995
0.2751 	0.999996
0.2758 	0.999996
0.2772 	0.999994
0.2786 	0.999956
0.28 	0.999582
0.2814 	0.998669
0.2821 	0.998354
0.2828 	0.998166
0.2842 	0.998313
0.2856 	0.999022
0.2863 	0.999479
0.2877 	0.999926
0.2891 	0.999988
0.2905 	0.999982
0.2919 	0.999922
0.2926 	0.999869
0.2933 	0.999819
0.2947 	0.999801
0.2954 	0.999832
0.2968 	0.999915
0.2982 	0.999947
0.2989 	0.999945
0.3003 	0.999946
0.3017 	0.999949
0.3031 	0.999854
0.3045 	0.994589
0.3059 	0.836958
0.3073 	0.393819
0.3087 	0.0472304
0.3101 	0.0005812
0.3115 	9.54639e-07
0.3129 	5.35704e-08
0.3143 	5.37381e-08
0.3157 	5.40873e-08
0.3171 	7.20295e-08
0.3185 	1.15253e-07
0.3199 	1.10996e-07
0.3213 	6.96126e-08
0.322 	8.68663e-08
0.3227 	3.15382e-07
0.3241 	3.57441e-06
0.3255 	1.08912e-05
0.3262 	1.34875e-05
0.3276 	7.0134e-06
0.3283 	3.70518e-06
0.3297 	5.14221e-07
0.3311 	2.7158e-07
0.3325 	4.49427e-07
0.3339 	3.34558e-07
0.3353 	4.11255e-07
0.336 	9.10532e-07
0.3367 	2.78874e-06
0.3374 	5.4316e-06
0.3388 	1.30224e-05
0.3395 	1.50354e-05
0.3409 	1.66968e-05
0.3423 	1.58219e-05
0.3437 	1.06723e-05
0.3451 	3.40164e-06
0.3465 	3.70598e-07
0.3472 	1.25195e-07
0.3479 	1.41604e-08
0.3486 	3.90238e-09
0.3493 	1.73843e-09
0.35 	1.7795e-09
0.3514 	1.2796e-07
0.3528 	1.15706e-06
0.3542 	2.96953e-06
0.3549 	3.97341e-06
0.3556 	4.74561e-06
0.3563 	5.41044e-06
0.3577 	4.84563e-06
0.3591 	3.93906e-06
0.3598 	3.68051e-06
0.3605 	3.00456e-06
0.3612 	2.16165e-06
0.3626 	4.41886e-07
0.364 	2.11014e-08
0.3654 	1.38534e-10
0.3668 	2.96248e-13
0.3682 	1.18644e-13
0.3689 	1.32285e-13
0.3703 	1.56544e-13
0.371 	1.60526e-13
0.3724 	1.55381e-13
0.3738 	1.37825e-13
0.3752 	1.01936e-13
0.3759 	7.70336e-14
0.3773 	3.01108e-14
0.3787 	4.7238e-15
0.3801 	1.71563e-16
0.3808 	6.82304e-17
0.3815 	1.48291e-18
0.3822 	6.89421e-19
0.3829 	3.31001e-19
0.3843 	2.59166e-19
0.3857 	1.62037e-19
0.3871 	6.29783e-20
0.3885 	1.09565e-20
0.3899 	4.71043e-22
0.3913 	3.13749e-25
0.392 	1.30729e-25
0.3934 	-9.32501e-43
0.3941 	-1.94881e-43
0.3955 	-9.88126e-44
0.3962 	-6.20073e-44
0.3976 	-2.98137e-44
0.399 	-1.56484e-44
0.4004 	-7.71424e-45
0.4018 	-3.47263e-45
0.4032 	-1.43904e-45
0.4039 	-8.53809e-46
0.4046 	-5.54872e-46
0.4053 	-3.2947e-46
0.4067 	-1.23206e-46
0.4081 	-4.62494e-47
0.4095 	-1.83191e-47
0.4109 	-8.0354e-48
0.4123 	-3.92798e-48
0.4137 	-2.05418e-48
0.4151 	-1.11367e-48
0.4158 	-8.34999e-49
0.4165 	-5.96904e-49
0.4179 	-3.07604e-49
0.4186 	-2.12802e-49
0.42 	-9.84518e-50
0.4214 	-4.53136e-50
0.4228 	-1.98484e-50
0.4235 	-1.28614e-50
0.4242 	-8.25921e-51
0.4256 	-3.26179e-51
0.427 	-1.21877e-51
0.4277 	-6.9169e-52
0.4291 	-2.46126e-52
0.4305 	-8.33599e-53
0.4319 	-2.67841e-53
0.4333 	-8.13862e-54
0.4347 	-2.3213e-54
0.4361 	-6.15263e-55
0.4375 	-1.48211e-55
0.4389 	-3.98278e-56
0.4403 	-1.02429e-56
0.441 	-5.21388e-57
0.4417 	-2.51421e-57
0.4431 	-5.87885e-58
0.4445 	-1.30264e-58
0.4459 	-2.72002e-59
0.4473 	-5.28266e-60
0.4487 	-9.33872e-61
0.4501 	-1.80578e-61
0.4508 	-9.78438e-62
0.4522 	-1.86128e-62
0.4536 	-3.41014e-63
0.4543 	-1.63452e-63
0.4557 	-3.40995e-64
0.4571 	-7.09224e-65
0.4578 	-2.96498e-65
0.4592 	-6.65158e-66
0.4606 	-1.47092e-66
0.462 	-3.15915e-67
0.4634 	-6.49849e-68
0.4648 	-1.25787e-68
0.4655 	-5.82418e-69
0.4662 	-2.28197e-69
0.4676 	-5.26905e-70
0.469 	-2.10614e-70
0.4704 	-1.53766e-70
0.4711 	-1.47957e-70
0.4725 	-1.46152e-70
0.4732 	-1.45693e-70
0.4739 	-1.44947e-70
0.4746 	-1.4315e-70
0.4753 	-1.4068e-70
0.476 	-1.37313e-70
0.4774 	-1.28383e-70
0.4788 	-1.1719e-70
0.4802 	-1.04526e-70
0.4816 	-9.13176e-71
0.4823 	-8.47171e-71
0.483 	-7.82616e-71
0.4844 	-6.58157e-71
0.4858 	-5.43503e-71
0.4865 	-4.9043e-71
0.4879 	-3.95321e-71
0.4886 	-3.52173e-71
0.49 	-2.76819e-71
0.4914 	-2.15538e-71
0.4928 	-1.65767e-71
0.4942 	-1.2603e-71
0.4949 	-1.08931e-71
0.4956 	-9.47938e-72
0.497 	-7.05844e-72
0.4984 	-5.20621e-72
0.4998 	-3.80574e-72
0.5012 	-2.75828e-72
0.5019 	-2.36624e-72
0.5026 	-1.9959e-72
0.504 	-1.43926e-72
0.5054 	-1.03136e-72
0.5068 	-7.34546e-73
0.5075 	-6.1148e-73
0.5089 	-4.33616e-73
0.5096 	-3.6591e-73
0.5103 	-3.05832e-73
0.511 	-2.55924e-73
0.5117 	-2.14541e-73
0.5124 	-1.77896e-73
0.5138 	-1.23394e-73
0.5152 	-8.58407e-74
0.5166 	-5.94135e-74
0.518 	-4.09095e-74
0.5194 	-2.80185e-74
0.5208 	-1.90844e-74
0.5215 	-1.5654e-74
0.5222 	-1.2925e-74
0.5229 	-1.06448e-74
0.5236 	-8.70143e-75
0.5243 	-7.20099e-75
0.525 	-5.82142e-75
0.5257 	-4.84517e-75
0.5264 	-3.93052e-75
0.5278 	-2.64074e-75
0.5285 	-2.15642e-75
0.5299 	-1.42561e-75
0.5313 	-9.41492e-76
0.5327 	-6.25175e-76
0.5341 	-4.13058e-76
0.5355 	-2.71503e-76
0.5369 	-1.77499e-76
0.5376 	-1.41362e-76
0.539 	-9.23487e-77
0.5404 	-6.00245e-77
0.5418 	-3.8809e-77
0.5432 	-2.49544e-77
0.5446 	-1.59532e-77
0.5453 	-1.26927e-77
0.5467 	-8.11838e-78
0.5481 	-5.16476e-78
0.5495 	-3.26718e-78
0.5502 	-2.5691e-78
0.5516 	-1.62604e-78
0.553 	-1.02377e-78
0.5544 	-6.4102e-79
0.5558 	-3.99045e-79
0.5572 	-2.46884e-79
0.5586 	-1.51743e-79
0.56 	-9.26076e-80
0.5614 	-5.74523e-80
0.5621 	-4.55683e-80
0.5635 	-2.77577e-80
0.5649 	-1.67988e-80
0.5656 	-1.33217e-80
0.5663 	-1.01792e-80
0.5677 	-6.23802e-81
0.5691 	-3.80904e-81
0.5705 	-2.31873e-81
0.5712 	-1.77169e-81
0.5726 	-1.0838e-81
0.574 	-6.70356e-82
0.5747 	-5.30942e-82
0.5761 	-3.32976e-82
0.5775 	-1.06274e-80
0.5789 	-3.52179e-80
0.5803 	-2.33877e-79
0.5817 	-3.3432e-79
0.5824 	-3.60222e-79
0.5838 	-4.18573e-79
0.5845 	-4.23058e-79
0.5852 	-4.27514e-79
0.5866 	-4.38654e-79
0.588 	-4.60009e-79
0.5894 	-4.8072e-79
0.5901 	-4.88544e-79
0.5915 	-5.08239e-79
0.5922 	-4.96604e-79
0.5929 	-4.87651e-79
0.5943 	-4.66442e-79
0.5957 	-4.37223e-79
0.5971 	-3.95816e-79
0.5985 	-3.51386e-79
0.5999 	-3.07018e-79
0.6013 	-2.69385e-79
0.602 	-2.47298e-79
0.6027 	-2.26548e-79
0.6041 	-1.92583e-79
0.6055 	-1.6337e-79
0.6069 	-1.38127e-79
0.6076 	-1.25919e-79
0.6083 	-1.16314e-79
0.609 	-1.0697e-79
0.6104 	-9.05282e-80
0.6118 	-7.66865e-80
0.6132 	-6.35409e-80
0.6146 	-5.25718e-80
0.616 	-4.36601e-80
0.6174 	-3.52662e-80
0.6188 	-2.86632e-80
0.6202 	-2.31029e-80
0.6216 	-1.87717e-80
0.623 	-1.48844e-80
0.6244 	-1.18499e-80
0.6251 	-1.05104e-80
0.6258 	-9.46313e-81
0.6265 	-8.43804e-81
0.6279 	-6.60177e-81
0.6286 	-5.85149e-81
0.6293 	-5.19281e-81
0.6307 	-4.08628e-81
0.6321 	-3.18347e-81
0.6335 	-2.46018e-81
0.6342 	-2.16451e-81
0.6349 	-1.8886e-81
0.6356 	-1.67497e-81
0.637 	-1.28973e-81
0.6384 	-9.81688e-82
0.6398 	-7.44288e-82
0.6412 	-5.71995e-82
0.6426 	-4.29151e-82
0.644 	-3.25134e-82
0.6454 	-2.45389e-82
0.6468 	-1.86014e-82
0.6482 	-1.3852e-82
0.6489 	-1.19221e-82
0.6503 	-8.91131e-83
0.6517 	-6.71959e-83
0.6531 	-4.96186e-83
0.6538 	-4.24452e-83
0.6552 	-3.14697e-83
0.6566 	-2.36434e-83
0.6573 	-2.01534e-83
0.6587 	-1.47858e-83
0.6594 	-1.27567e-83
0.6608 	-9.45346e-84
0.6622 	-6.92747e-84
0.6629 	-5.9159e-84
0.6636 	-5.04475e-84
0.6643 	-4.32825e-84
0.6657 	-3.18353e-84
0.6671 	-2.32636e-84
0.6685 	-1.68242e-84
0.6699 	-1.21266e-84
0.6706 	-1.04862e-84
0.6713 	-8.96019e-85
0.6727 	-6.44073e-85
0.6741 	-4.66588e-85
0.6755 	-3.38728e-85
0.6762 	-2.89279e-85
0.6769 	-2.46779e-85
0.6776 	-2.06523e-85
0.6783 	-1.76521e-85
0.679 	-1.49112e-85
0.6804 	-1.07768e-85
0.6811 	-9.22609e-86
0.6825 	-6.5474e-86
0.6839 	-4.72693e-86
0.6846 	-4.02313e-86
0.6853 	-3.41675e-86
0.686 	-2.94026e-86
0.6874 	-2.10767e-86
0.6888 	-1.52437e-86
0.6902 	-1.11729e-86
0.6916 	-8.42078e-87
0.6923 	-7.20969e-87
0.6937 	-5.37027e-87
0.6951 	-5.01845e-87
0.6965 	-5.5382e-87
0.6972 	-6.2013e-87
0.6979 	-6.97708e-87
0.6993 	-8.28523e-87
0.7 	-8.69001e-87
