0 	1
0.0007 	1
0.0014 	1
0.0021 	1
0.0028 	1
0.0035 	1
0.0042 	1
0.0049 	1
0.0056 	1
0.0063 	1
0.007 	1
0.0077 	1
0.0084 	1
0.0091 	1
0.0098 	1
0.0105 	1
0.0112 	1
0.0119 	1
0.0126 	1
0.0133 	1
0.014 	1
0.0147 	1
0.0154 	1
0.0161 	1
0.0168 	1
0.0175 	1
0.0182 	1
0.0189 	1
0.0196 	1
0.0203 	1
0.021 	1
0.0217 	1
0.0224 	1
0.0231 	1
0.0238 	1
0.0245 	1
0.0252 	1
0.0259 	1
0.0266 	1
0.0273 	1
0.028 	1
0.0287 	1
0.0294 	1
0.0301 	1
0.0308 	1
0.0315 	1
0.0322 	1
0.0329 	1
0.0336 	1
0.0343 	1
0.035 	1
0.0357 	1
0.0364 	1
0.0371 	1
0.0378 	1
0.0385 	1
0.0392 	1
0.0399 	1
0.0406 	1
0.0413 	1
0.042 	1
0.0427 	1
0.0434 	1
0.0441 	1
0.0448 	1
0.0455 	1
0.0462 	1
0.0469 	1
0.0476 	1
0.0483 	1
0.049 	1
0.0497 	1
0.0504 	1
0.0511 	1
0.0518 	1
0.0525 	1
0.0532 	1
0.0539 	1
0.0546 	1
0.0553 	1
0.056 	1
0.0567 	1
0.0574 	1
0.0581 	1
0.0588 	1
0.0595 	1
0.0602 	1
0.0609 	1
0.0616 	1
0.0623 	1
0.063 	1
0.0637 	1
0.0644 	1
0.0651 	1
0.0658 	1
0.0665 	1
0.0672 	1
0.0679 	1
0.0686 	1
0.0693 	1
0.07 	1
0.0707 	1
0.0714 	1
0.0721 	1
0.0728 	1
0.0735 	1
0.0742 	1
0.0749 	1
0.0756 	1
0.0763 	1
0.077 	1
0.0777 	1
0.0784 	1
0.0791 	1
0.0798 	1
0.0805 	1
0.0812 	1
0.0819 	1
0.0826 	1
0.0833 	1
0.084 	1
0.0847 	1
0.0854 	1
0.0861 	1
0.0868 	1
0.0875 	1
0.0882 	1
0.0889 	1
0.0896 	1
0.0903 	1
0.091 	1
0.0917 	1
0.0924 	1
0.0931 	1
0.0938 	1
0.0945 	1
0.0952 	1
0.0959 	1
0.0966 	1
0.0973 	1
0.098 	1
0.0987 	1
0.0994 	1
0.1001 	1
0.1008 	1
0.1015 	1
0.1022 	1
0.1029 	1
0.1036 	1
0.1043 	1
0.105 	1
0.1057 	1
0.1064 	1
0.1071 	1
0.1078 	1
0.1085 	1
0.1092 	1
0.1099 	1
0.1106 	1
0.1113 	1
0.112 	1
0.1127 	1
0.1134 	1
0.1141 	1
0.1148 	1
0.1155 	1
0.1162 	1
0.1169 	1
0.1176 	1
0.1183 	1
0.119 	1
0.1197 	1
0.1204 	1
0.1211 	1
0.1218 	1
0.1225 	1
0.1232 	1
0.1239 	1
0.1246 	1
0.1253 	1
0.126 	1
0.1267 	1
0.1274 	1
0.1281 	1
0.1288 	1
0.1295 	1
0.1302 	1
0.1309 	1
0.1316 	1
0.1323 	1
0.133 	1
0.1337 	1
0.1344 	1
0.1351 	1
0.1358 	1
0.1365 	1
0.1372 	1
0.1379 	1
0.1386 	1
0.1393 	1
0.14 	1
0.1407 	1
0.1414 	1
0.1421 	1
0.1428 	1
0.1435 	1
0.1442 	1
0.1449 	1
0.1456 	1
0.1463 	1
0.147 	1
0.1477 	1
0.1484 	1
0.1491 	1
0.1498 	1
0.1505 	1
0.1512 	1
0.1519 	1
0.1526 	1
0.1533 	1
0.154 	1
0.1547 	1
0.1554 	1
0.1561 	1
0.1568 	1
0.1575 	1
0.1582 	1
0.1589 	1
0.1596 	1
0.1603 	1
0.161 	1
0.1617 	1
0.1624 	1
0.1631 	1
0.1638 	1
0.1645 	1
0.1652 	1
0.1659 	1
0.1666 	1
0.1673 	1
0.168 	1
0.1687 	1
0.1694 	1
0.1701 	1
0.1708 	1
0.1715 	1
0.1722 	1
0.1729 	1
0.1736 	1
0.1743 	1
0.175 	1
0.1757 	1
0.1764 	1
0.1771 	1
0.1778 	1
0.1785 	1
0.1792 	1
0.1799 	1
0.1806 	1
0.1813 	1
0.182 	1
0.1827 	1
0.1834 	1
0.1841 	1
0.1848 	1
0.1855 	1
0.1862 	1
0.1869 	1
0.1876 	1
0.1883 	1
0.189 	1
0.1897 	1
0.1904 	1
0.1911 	1
0.1918 	1
0.1925 	1
0.1932 	1
0.1939 	1
0.1946 	1
0.1953 	1
0.196 	1
0.1967 	1
0.1974 	1
0.1981 	1
0.1988 	1
0.1995 	1
0.2002 	1
0.2009 	1
0.2016 	1
0.2023 	1
0.2037 	1
0.2051 	1
0.2065 	1
0.2079 	1
0.2093 	1
0.2107 	1
0.2121 	1
0.2128 	1
0.2135 	1
0.2149 	1
0.2163 	1
0.2177 	1
0.2191 	1
0.2205 	1
0.2212 	1
0.2226 	1
0.2233 	1
0.224 	1
0.2247 	1
0.2261 	1
0.2275 	1
0.2289 	1
0.2296 	1
0.2303 	1
0.2317 	1
0.2331 	1
0.2338 	1
0.2352 	1
0.2366 	1
0.238 	0.999999
0.2394 	0.99989
0.2401 	0.999632
0.2415 	0.996847
0.2422 	0.994142
0.2429 	0.991929
0.2436 	0.990083
0.245 	0.992374
0.2464 	0.997859
0.2478 	0.999925
0.2492 	0.999949
0.2506 	0.999836
0.252 	0.999679
0.2534 	0.999632
0.2548 	0.999708
0.2562 	0.999895
0.2576 	0.999996
0.259 	0.999999
0.2604 	0.999998
0.2611 	0.999996
0.2625 	0.999985
0.2639 	0.999957
0.2653 	0.999909
0.2667 	0.999838
0.2674 	0.999795
0.2688 	0.999682
0.2702 	0.999507
0.2716 	0.999201
0.2723 	0.998975
0.273 	0.998589
0.2737 	0.99814
0.2751 	0.995396
0.2765 	0.977815
0.2779 	0.869316
0.2793 	0.563241
0.2807 	0.231831
0.2814 	0.12445
0.2828 	0.0728982
0.2842 	0.049503
0.2849 	0.0376911
0.2863 	0.0148266
0.2877 	0.00377591
0.2884 	0.00192095
0.2891 	0.000778506
0.2898 	0.000348561
0.2905 	0.000157358
0.2912 	6.16531e-05
0.2926 	1.32084e-05
0.2933 	7.12767e-06
0.294 	2.70573e-06
0.2954 	6.37718e-07
0.2961 	6.09034e-07
0.2968 	6.14734e-07
0.2982 	5.84394e-07
0.2996 	5.34224e-07
0.3003 	6.13969e-07
0.301 	8.15945e-07
0.3017 	2.48234e-06
0.3031 	5.8266e-06
0.3038 	6.28471e-06
0.3052 	9.73814e-06
0.3059 	2.97537e-05
0.3073 	6.3739e-05
0.308 	5.53248e-05
0.3094 	1.98085e-05
0.3101 	4.60056e-06
0.3115 	1.67392e-08
0.3129 	6.03373e-10
0.3136 	6.89896e-10
0.315 	1.01527e-09
0.3164 	8.29782e-10
0.3178 	3.32456e-10
0.3192 	1.00214e-10
0.3199 	7.54052e-11
0.3206 	7.15661e-11
0.322 	6.00711e-11
0.3234 	3.09797e-11
0.3248 	8.59972e-12
0.3255 	4.11614e-12
0.3262 	1.56245e-12
0.3269 	9.16718e-13
0.3276 	4.77276e-13
0.329 	3.24837e-13
0.3297 	2.87428e-13
0.3311 	2.0029e-13
0.3325 	1.09516e-13
0.3339 	4.72076e-14
0.3346 	2.91511e-14
0.3353 	1.55438e-14
0.3367 	3.53273e-15
0.3374 	1.05299e-15
0.3381 	4.35858e-16
0.3388 	1.44975e-16
0.3395 	6.04065e-17
0.3409 	-1.20447e-33
0.3416 	1.62816e-34
0.343 	1.33761e-33
0.3444 	3.39469e-33
0.3451 	3.54537e-33
0.3465 	5.47846e-33
0.3479 	4.42546e-33
0.3486 	1.45574e-33
0.3493 	4.31999e-33
0.35 	8.77758e-33
0.3514 	3.75844e-30
0.3528 	4.47074e-29
0.3535 	9.65592e-29
0.3542 	1.75478e-28
0.3556 	3.69919e-28
0.357 	5.56926e-28
0.3584 	5.51562e-28
0.3591 	4.30814e-28
0.3598 	2.41544e-28
0.3612 	1.2869e-29
0.3626 	8.86445e-37
0.364 	4.53031e-35
0.3647 	1.41036e-34
0.3661 	1.72313e-34
0.3675 	1.66178e-41
0.3689 	8.45616e-40
0.3703 	1.26158e-39
0.3717 	4.36194e-40
0.3724 	5.49931e-41
0.3738 	2.63718e-43
0.3752 	4.35448e-44
0.3766 	-4.44878e-63
0.378 	-1.99323e-62
0.3794 	1.94092e-47
0.3808 	3.73206e-47
0.3815 	2.98523e-47
0.3829 	6.87309e-54
0.3836 	1.8901e-53
0.385 	3.28053e-52
0.3864 	2.69743e-52
0.3878 	1.2626e-57
0.3885 	5.15957e-58
0.3892 	3.26058e-58
0.3906 	3.43754e-58
0.392 	8.64853e-59
0.3934 	1.06568e-60
0.3941 	8.58103e-61
0.3955 	2.37311e-61
0.3962 	1.58166e-62
0.3976 	1.3186e-73
0.399 	1.6479e-72
0.4004 	1.13673e-72
0.4018 	5.08371e-74
0.4025 	5.08371e-74
0.4032 	1.51496e-72
0.4046 	4.10281e-72
0.4053 	4.04813e-72
0.406 	2.34215e-72
0.4067 	7.59923e-73
0.4081 	-1.2029e-72
0.4088 	-1.47824e-72
0.4102 	-2.07491e-72
0.4109 	-2.25016e-72
0.4116 	-2.4013e-72
0.4123 	-2.52832e-72
0.4137 	-2.81566e-72
0.4151 	-3.02846e-72
0.4165 	-2.86946e-72
0.4179 	-2.53648e-72
0.4186 	-2.37379e-72
0.42 	-2.0571e-72
0.4214 	-1.78564e-72
0.4221 	-1.63317e-72
0.4235 	-1.34161e-72
0.4249 	-1.07407e-72
0.4263 	-8.90946e-73
0.4277 	-7.17477e-73
0.4284 	-6.35934e-73
0.4291 	-5.58327e-73
0.4298 	-4.84659e-73
0.4312 	-3.87045e-73
0.4326 	-3.04963e-73
0.434 	-2.3016e-73
0.4354 	-1.70484e-73
0.4368 	-1.33812e-73
0.4375 	-1.16951e-73
0.4382 	-1.01373e-73
0.4389 	-8.61805e-74
0.4403 	-6.13555e-74
0.4417 	-4.73043e-74
0.4431 	-3.53159e-74
0.4438 	-2.96561e-74
0.4445 	-2.46553e-74
0.4459 	-1.77597e-74
0.4473 	-1.3338e-74
0.4487 	-9.46729e-75
0.4501 	-6.25602e-75
0.4515 	-4.66597e-75
0.4522 	-4.02041e-75
0.4529 	-3.40767e-75
0.4543 	-2.29724e-75
0.4557 	-1.54789e-75
0.4564 	-1.31573e-75
0.4578 	-9.52846e-76
0.4592 	-6.33612e-76
0.4606 	-4.13102e-76
0.462 	-2.97472e-76
0.4627 	-2.49405e-76
0.4641 	-1.63852e-76
0.4655 	-1.03388e-76
0.4669 	-7.33693e-77
0.4676 	-6.12149e-77
0.4683 	-5.01682e-77
0.4697 	-3.06223e-77
0.4704 	-2.43143e-77
0.4711 	-2.01525e-77
0.4725 	-1.41134e-77
0.4739 	-9.08792e-78
0.4753 	-5.38251e-78
0.476 	-4.44587e-78
0.4767 	-3.70525e-78
0.4774 	-3.07354e-78
0.4788 	-1.95565e-78
0.4802 	-1.12376e-78
0.4816 	-7.61732e-79
0.4823 	-6.31565e-79
0.4837 	-3.98894e-79
0.4851 	-2.21766e-79
0.4865 	-1.48053e-79
0.4872 	-1.22781e-79
0.4879 	-9.93773e-80
0.4886 	-7.73754e-80
0.49 	-4.14849e-80
0.4914 	-2.72689e-80
0.4921 	-2.2626e-80
0.4928 	-1.82513e-80
0.4942 	-1.07734e-80
0.4956 	-6.04237e-81
0.497 	-3.95473e-81
0.4977 	-3.18029e-81
0.4984 	-2.48632e-81
0.4998 	-1.33163e-81
0.5005 	-1.01924e-81
0.5019 	-6.57991e-82
0.5033 	-4.13965e-82
0.5047 	-2.21977e-82
0.5061 	-1.28458e-82
0.5068 	-1.04413e-82
0.5075 	-8.35282e-83
0.5089 	-4.8853e-83
0.5096 	-3.52917e-83
0.5103 	-2.52048e-83
0.5117 	-1.57935e-83
0.5131 	-9.95218e-84
0.5138 	-7.3503e-84
0.5152 	-3.69494e-84
0.5159 	-2.90011e-84
0.5173 	-1.83415e-84
0.5187 	-1.06256e-84
0.5201 	-5.17621e-85
0.5215 	-3.14318e-85
0.5229 	-1.98533e-85
0.5236 	-1.47627e-85
0.525 	-6.93118e-86
0.5264 	-4.14035e-86
0.5278 	-2.61875e-86
0.5285 	-1.96025e-86
0.5299 	-9.30476e-87
0.5306 	-7.01696e-87
0.5313 	-5.21703e-87
0.532 	-4.23689e-87
0.5327 	-3.3041e-87
0.5334 	-2.4897e-87
0.5341 	-1.78628e-87
0.5348 	-1.19382e-87
0.5355 	-8.63148e-88
0.5362 	-6.37187e-88
0.5376 	-3.9926e-88
0.539 	-2.16155e-88
0.5397 	-1.46687e-88
0.5411 	-7.5663e-89
0.5425 	-4.63455e-89
0.5432 	-3.5406e-89
0.5446 	-1.73052e-89
0.5453 	-1.15758e-89
0.546 	-8.64451e-90
0.5474 	-5.20876e-90
0.5488 	-2.80823e-90
0.5502 	-1.26481e-90
0.5516 	-7.16391e-91
0.553 	-4.29751e-91
0.5544 	-2.13388e-91
0.5551 	-1.33015e-91
0.5558 	-1.00562e-91
0.5572 	-5.85996e-92
0.5586 	-3.20352e-92
0.56 	-1.34884e-92
0.5614 	-7.40031e-93
0.5628 	-4.48402e-93
0.5642 	-2.25811e-93
0.5656 	-1.01154e-93
0.567 	-5.69954e-94
0.5677 	-4.34297e-94
0.5684 	-3.18204e-94
0.5698 	-1.39776e-94
0.5705 	-9.63087e-95
0.5712 	-6.75569e-95
0.5726 	-4.06255e-95
0.574 	-2.06964e-95
0.5754 	-8.86383e-96
0.5768 	-4.82757e-96
0.5782 	-2.74626e-96
0.5796 	-1.24791e-96
0.581 	-5.66239e-97
0.5824 	-3.24473e-97
0.5831 	-2.42685e-97
0.5838 	-1.65497e-97
0.5845 	-1.11855e-97
0.5859 	-4.93491e-98
0.5873 	-2.77194e-98
0.5887 	-1.42263e-98
0.5894 	-9.67995e-99
0.5908 	-4.16198e-99
0.5922 	-2.29138e-99
0.5936 	-1.19435e-99
0.5943 	-8.09012e-100
0.595 	-4.60426e-100
0.5964 	-2.33993e-100
0.5978 	-1.37242e-100
0.5992 	-6.54428e-101
0.6006 	-2.69184e-101
0.602 	-1.42647e-101
0.6027 	-1.06785e-101
0.6034 	-7.65477e-102
0.6041 	-5.14086e-102
0.6048 	-3.13676e-102
0.6062 	-1.38693e-102
0.6076 	-8.07391e-103
0.6083 	-5.86214e-103
0.6097 	-2.46102e-103
0.6104 	-1.55213e-103
0.6118 	-7.92447e-104
0.6132 	-4.35999e-104
0.6139 	-2.90272e-104
0.6153 	-1.13041e-104
0.616 	-7.80738e-105
0.6174 	-4.28881e-105
0.6188 	-2.09416e-105
0.6195 	-1.38132e-105
0.6209 	-5.63041e-106
0.6216 	-3.96009e-106
0.6223 	-3.02367e-106
0.623 	-2.22913e-106
0.6244 	-9.92186e-107
0.6258 	-3.95589e-107
0.6265 	-2.69701e-107
0.6272 	-2.07759e-107
0.6286 	-1.04633e-107
0.63 	-3.76642e-108
0.6307 	-2.70861e-108
0.6314 	-1.79178e-108
0.6328 	-1.02885e-108
0.6335 	-7.14653e-109
0.6349 	-2.68105e-109
0.6363 	-1.16293e-109
0.6377 	-6.74208e-110
0.6384 	-4.76158e-110
0.6391 	-3.13137e-110
0.6398 	-1.85144e-110
0.6412 	-7.57788e-111
0.6426 	-4.32278e-111
0.644 	-2.03278e-111
0.6454 	-7.56585e-112
0.6461 	-4.9543e-112
0.6475 	-2.71546e-112
0.6482 	-1.97569e-112
0.6489 	-1.2922e-112
0.6496 	-8.15115e-113
0.651 	-3.17099e-113
0.6524 	-1.69109e-113
0.6538 	-8.05999e-114
0.6545 	-5.22347e-114
0.6552 	-2.9295e-114
0.6566 	-1.36055e-114
0.6573 	-1.03561e-114
0.6587 	-5.01997e-115
0.6601 	-1.78699e-115
0.6615 	-8.15338e-116
0.6629 	-4.63348e-116
0.6636 	-3.14334e-116
0.6643 	-2.06067e-116
0.665 	-1.08915e-116
0.6657 	-7.65647e-117
0.6664 	-4.88557e-117
0.6671 	-3.81649e-117
0.6685 	-1.97099e-117
0.6699 	-7.24933e-118
0.6713 	-2.96073e-118
0.6727 	-1.76209e-118
0.6741 	-8.30324e-119
0.6755 	-3.07391e-119
0.6769 	-1.48353e-119
0.6783 	-8.24552e-120
0.6797 	-3.39698e-120
0.6804 	-2.05964e-120
0.6818 	-9.76441e-121
0.6825 	-7.5663e-121
0.6839 	-3.7999e-121
0.6846 	-2.41687e-121
0.686 	-8.98864e-122
0.6874 	-4.76064e-122
0.6888 	-2.23745e-122
0.6902 	-7.14134e-123
0.6916 	-2.41751e-123
0.693 	-1.21616e-123
0.6944 	-4.6592e-124
0.6958 	-1.33914e-124
0.6972 	-5.05009e-125
0.6986 	-1.80177e-125
0.6993 	-9.10172e-126
0.7 	-1.72845e-126
