0 	1
0.0007 	1
0.0014 	1
0.0021 	1
0.0028 	1
0.0035 	1
0.0042 	1
0.0049 	1
0.0056 	1
0.0063 	1
0.007 	1
0.0077 	1
0.0084 	1
0.0091 	1
0.0098 	1
0.0105 	1
0.0112 	1
0.0119 	1
0.0126 	1
0.0133 	1
0.014 	1
0.0147 	1
0.0154 	1
0.0161 	1
0.0168 	1
0.0175 	1
0.0182 	1
0.0189 	1
0.0196 	1
0.0203 	1
0.021 	1
0.0217 	1
0.0224 	1
0.0231 	1
0.0238 	1
0.0245 	1
0.0252 	1
0.0259 	1
0.0266 	1
0.0273 	1
0.028 	1
0.0287 	1
0.0294 	1
0.0301 	1
0.0308 	1
0.0315 	1
0.0322 	1
0.0329 	1
0.0336 	1
0.0343 	1
0.035 	1
0.0357 	1
0.0364 	1
0.0371 	1
0.0378 	1
0.0385 	1
0.0392 	1
0.0399 	1
0.0406 	1
0.0413 	1
0.042 	1
0.0427 	1
0.0434 	1
0.0441 	1
0.0448 	1
0.0455 	1
0.0462 	1
0.0469 	1
0.0476 	1
0.0483 	1
0.049 	1
0.0497 	1
0.0504 	1
0.0511 	1
0.0518 	1
0.0525 	1
0.0532 	1
0.0539 	1
0.0546 	1
0.0553 	1
0.056 	1
0.0567 	1
0.0574 	1
0.0581 	1
0.0588 	1
0.0595 	1
0.0602 	1
0.0609 	1
0.0616 	1
0.0623 	1
0.063 	1
0.0637 	1
0.0644 	1
0.0651 	1
0.0658 	1
0.0665 	1
0.0672 	1
0.0679 	1
0.0686 	1
0.0693 	1
0.07 	1
0.0707 	1
0.0714 	1
0.0721 	1
0.0728 	1
0.0735 	1
0.0742 	1
0.0749 	1
0.0756 	1
0.0763 	1
0.077 	1
0.0777 	1
0.0784 	1
0.0791 	1
0.0798 	1
0.0805 	1
0.0812 	1
0.0819 	1
0.0826 	1
0.0833 	1
0.084 	1
0.0847 	1
0.0854 	1
0.0861 	1
0.0868 	1
0.0875 	1
0.0882 	1
0.0889 	1
0.0896 	1
0.0903 	1
0.091 	1
0.0917 	1
0.0924 	1
0.0931 	1
0.0938 	1
0.0945 	1
0.0952 	1
0.0959 	1
0.0966 	1
0.0973 	1
0.098 	1
0.0987 	1
0.0994 	1
0.1001 	1
0.1008 	1
0.1015 	1
0.1022 	1
0.1029 	1
0.1036 	1
0.1043 	1
0.105 	1
0.1057 	1
0.1064 	1
0.1071 	1
0.1078 	1
0.1085 	1
0.1092 	1
0.1099 	1
0.1106 	1
0.1113 	1
0.112 	1
0.1127 	1
0.1134 	1
0.1141 	1
0.1148 	1
0.1155 	1
0.1162 	1
0.1169 	1
0.1176 	1
0.1183 	1
0.119 	1
0.1197 	1
0.1204 	1
0.1211 	1
0.1218 	1
0.1225 	1
0.1232 	1
0.1239 	1
0.1246 	1
0.1253 	1
0.126 	1
0.1267 	1
0.1274 	1
0.1281 	1
0.1288 	1
0.1295 	1
0.1302 	1
0.1309 	1
0.1316 	1
0.1323 	1
0.133 	1
0.1337 	1
0.1344 	1
0.1351 	1
0.1358 	1
0.1365 	1
0.1372 	1
0.1379 	1
0.1386 	1
0.1393 	1
0.14 	1
0.1407 	1
0.1414 	1
0.1421 	1
0.1428 	1
0.1435 	1
0.1442 	1
0.1449 	1
0.1456 	1
0.1463 	1
0.147 	1
0.1477 	1
0.1484 	1
0.1491 	1
0.1498 	1
0.1505 	1
0.1512 	1
0.1519 	1
0.1526 	1
0.1533 	1
0.154 	1
0.1547 	1
0.1554 	1
0.1561 	1
0.1568 	1
0.1575 	1
0.1582 	1
0.1589 	1
0.1596 	1
0.1603 	1
0.161 	1
0.1617 	1
0.1624 	1
0.1631 	1
0.1638 	1
0.1645 	1
0.1652 	1
0.1659 	1
0.1666 	1
0.1673 	1
0.168 	1
0.1687 	1
0.1694 	1
0.1701 	1
0.1708 	1
0.1715 	1
0.1722 	1
0.1729 	1
0.1736 	1
0.1743 	1
0.175 	1
0.1757 	1
0.1764 	1
0.1771 	1
0.1778 	1
0.1785 	1
0.1792 	1
0.1799 	1
0.1806 	1
0.1813 	1
0.182 	1
0.1827 	1
0.1834 	1
0.1841 	1
0.1848 	1
0.1855 	1
0.1862 	1
0.1869 	1
0.1876 	1
0.1883 	1
0.189 	1
0.1897 	1
0.1904 	1
0.1911 	1
0.1918 	1
0.1925 	1
0.1932 	1
0.1939 	1
0.1946 	1
0.1953 	1
0.196 	1
0.1967 	1
0.1974 	1
0.1981 	1
0.1988 	1
0.1995 	1
0.2002 	1
0.2009 	1
0.2016 	1
0.2023 	1
0.203 	1
0.2037 	1
0.2044 	1
0.2051 	1
0.2058 	1
0.2065 	1
0.2072 	1
0.2079 	1
0.2086 	1
0.2093 	1
0.21 	1
0.2107 	1
0.2114 	1
0.2121 	1
0.2128 	1
0.2135 	1
0.2142 	1
0.2149 	1
0.2156 	1
0.2163 	1
0.217 	1
0.2177 	1
0.2184 	1
0.2191 	1
0.2198 	1
0.2205 	1
0.2212 	1
0.2219 	1
0.2226 	1
0.2233 	1
0.224 	1
0.2247 	1
0.2254 	1
0.2261 	0.999999
0.2268 	0.999999
0.2275 	0.999998
0.2282 	0.999998
0.2289 	0.999997
0.2296 	0.999997
0.2303 	0.999984
0.231 	0.999945
0.2317 	0.999906
0.2324 	0.999868
0.2331 	0.999829
0.2338 	0.99979
0.2345 	0.999752
0.2352 	0.99958
0.2359 	0.998882
0.2366 	0.998183
0.2373 	0.997485
0.238 	0.996786
0.2387 	0.996088
0.2394 	0.99539
0.2401 	0.993786
0.2408 	0.97637
0.2415 	0.958955
0.2422 	0.941541
0.2429 	0.924127
0.2436 	0.906712
0.2443 	0.889298
0.245 	0.869713
0.2457 	0.813568
0.2464 	0.755556
0.2471 	0.697542
0.2478 	0.639529
0.2485 	0.581516
0.2492 	0.523502
0.2499 	0.465489
0.2506 	0.407688
0.2513 	0.35563
0.252 	0.30357
0.2527 	0.251511
0.2534 	0.199451
0.2541 	0.147392
0.2548 	0.0953324
0.2555 	0.0749886
0.2562 	0.0637025
0.2569 	0.0524169
0.2576 	0.0411314
0.2583 	0.0298458
0.259 	0.0185602
0.2597 	0.00727468
0.2604 	0.00314759
0.2611 	0.00266476
0.2618 	0.00218206
0.2625 	0.0016994
0.2632 	0.00121674
0.2639 	0.000734077
0.2646 	0.000251415
0.2653 	1.89715e-05
0.266 	1.61064e-05
0.2667 	1.32431e-05
0.2674 	1.03807e-05
0.2681 	7.51837e-06
0.2688 	4.65601e-06
0.2695 	1.79364e-06
0.2702 	1.04243e-08
0.2709 	8.88193e-09
0.2716 	7.34085e-09
0.2723 	5.80109e-09
0.273 	4.26133e-09
0.2737 	2.72157e-09
0.2744 	1.1818e-09
0.2751 	4.41395e-13
0.2758 	3.77454e-13
0.2765 	3.13551e-13
0.2772 	2.49717e-13
0.2779 	1.85882e-13
0.2786 	1.22048e-13
0.2793 	5.82139e-14
0.28 	1.78065e-17
0.2807 	1.52492e-17
0.2814 	1.27305e-17
0.2821 	1.02128e-17
0.2828 	7.69511e-18
0.2835 	5.17742e-18
0.2842 	2.65973e-18
0.2849 	1.42042e-19
0.2856 	5.91761e-22
0.2863 	4.96397e-22
0.287 	4.00953e-22
0.2877 	3.05508e-22
0.2884 	2.10063e-22
0.2891 	1.14619e-22
0.2898 	1.91743e-23
0.2905 	2.08919e-26
0.2912 	1.76073e-26
0.2919 	1.4314e-26
0.2926 	1.10199e-26
0.2933 	7.72587e-27
0.294 	4.43182e-27
0.2947 	1.13777e-27
0.2954 	6.7735e-31
0.2961 	5.7343e-31
0.2968 	4.69076e-31
0.2975 	3.64603e-31
0.2982 	2.6013e-31
0.2989 	1.55657e-31
0.2996 	5.11848e-32
0.3003 	2.03989e-35
0.301 	1.7344e-35
0.3017 	1.42731e-35
0.3024 	1.11933e-35
0.3031 	8.11358e-36
0.3038 	5.03383e-36
0.3045 	1.95408e-36
0.3052 	5.76778e-40
0.3059 	4.92429e-40
0.3066 	4.07609e-40
0.3073 	3.22319e-40
0.308 	2.37028e-40
0.3087 	1.51738e-40
0.3094 	6.64478e-41
0.3101 	1.54158e-44
0.3108 	1.32134e-44
0.3115 	1.09997e-44
0.3122 	8.76562e-45
0.3129 	6.53159e-45
0.3136 	4.29756e-45
0.3143 	2.06353e-45
0.315 	3.90313e-49
0.3157 	3.35455e-49
0.3164 	2.80802e-49
0.3171 	2.25398e-49
0.3178 	1.69995e-49
0.3185 	1.14591e-49
0.3192 	5.91877e-50
0.3199 	3.78417e-51
0.3206 	8.02786e-54
0.3213 	6.75615e-54
0.322 	5.46011e-54
0.3227 	4.16408e-54
0.3234 	2.86805e-54
0.3241 	1.57201e-54
0.3248 	2.75978e-55
0.3255 	1.8008e-58
0.3262 	1.523e-58
0.3269 	1.23911e-58
0.3276 	9.54752e-59
0.3283 	6.70396e-59
0.329 	3.8604e-59
0.3297 	1.01684e-59
0.3304 	3.76857e-63
0.3311 	3.20117e-63
0.3318 	2.622e-63
0.3325 	2.03963e-63
0.3332 	1.45725e-63
0.3339 	8.74879e-64
0.3346 	2.92505e-64
0.3353 	7.34002e-68
0.336 	6.26069e-68
0.3367 	5.16121e-68
0.3374 	4.05054e-68
0.3381 	2.93988e-68
0.3388 	1.82921e-68
0.3395 	7.18541e-69
0.3402 	1.33061e-72
0.3409 	1.13939e-72
0.3416 	9.45156e-73
0.3423 	7.47905e-73
0.343 	5.50654e-73
0.3437 	3.53403e-73
0.3444 	1.56152e-73
0.3451 	2.24922e-77
0.3458 	1.93314e-77
0.3465 	1.61323e-77
0.3472 	1.28642e-77
0.3479 	9.59616e-78
0.3486 	6.3281e-78
0.3493 	3.06004e-78
0.35 	3.55708e-82
0.3507 	3.06621e-82
0.3514 	2.5736e-82
0.3521 	2.0671e-82
0.3528 	1.56059e-82
0.3535 	1.05408e-82
0.3542 	5.4757e-83
0.3549 	4.10618e-84
0.3556 	4.56037e-87
0.3563 	3.84909e-87
0.357 	3.11254e-87
0.3577 	2.37598e-87
0.3584 	1.63943e-87
0.3591 	9.02869e-88
0.3598 	1.66313e-88
0.3605 	6.37764e-92
0.3612 	5.40915e-92
0.3619 	4.40424e-92
0.3626 	3.39653e-92
0.3633 	2.38882e-92
0.364 	1.3811e-92
0.3647 	3.73394e-93
0.3654 	8.40482e-97
0.3661 	7.15797e-97
0.3668 	5.86943e-97
0.3675 	4.56953e-97
0.3682 	3.26963e-97
0.3689 	1.96972e-97
0.3696 	6.6982e-98
0.3703 	1.04521e-101
0.371 	8.93649e-102
0.3717 	7.37748e-102
0.3724 	5.79434e-102
0.3731 	4.21121e-102
0.3738 	2.62807e-102
0.3745 	1.04493e-102
0.3752 	1.22712e-106
0.3759 	1.05311e-106
0.3766 	8.75048e-107
0.3773 	6.92928e-107
0.378 	5.10809e-107
0.3787 	3.28689e-107
0.3794 	1.4657e-107
0.3801 	1.35961e-111
0.3808 	1.17098e-111
0.3815 	9.79078e-112
0.3822 	7.81267e-112
0.3829 	5.83456e-112
0.3836 	3.85646e-112
0.3843 	1.87835e-112
0.385 	1.42063e-116
0.3857 	1.22721e-116
0.3864 	1.03228e-116
0.3871 	8.29649e-117
0.3878 	6.27016e-117
0.3885 	4.24383e-117
0.3892 	2.2175e-117
0.3899 	1.91164e-118
0.3906 	1.21026e-121
0.3913 	1.02397e-121
0.392 	8.2852e-122
0.3927 	6.33074e-122
0.3934 	4.37627e-122
0.3941 	2.42181e-122
0.3948 	4.67343e-123
0.3955 	1.12099e-126
0.3962 	9.53153e-127
0.3969 	7.76657e-127
0.3976 	5.99496e-127
0.3983 	4.22334e-127
0.399 	2.45173e-127
0.3997 	6.80114e-128
0.4004 	9.7331e-132
0.4011 	8.30963e-132
0.4018 	6.82115e-132
0.4025 	5.31494e-132
0.4032 	3.80872e-132
0.4039 	2.30251e-132
0.4046 	7.963e-133
0.4053 	7.90732e-137
0.406 	6.77731e-137
0.4067 	5.60302e-137
0.4074 	4.40412e-137
0.4081 	3.20522e-137
0.4088 	2.00631e-137
0.4095 	8.07413e-138
0.4102 	6.00121e-142
0.4109 	5.16294e-142
0.4116 	4.29782e-142
0.4123 	3.40583e-142
0.413 	2.51385e-142
0.4137 	1.62186e-142
0.4144 	7.29878e-143
0.4151 	5.94086e-147
0.4158 	5.16327e-147
0.4165 	4.37182e-147
0.4172 	3.5554e-147
0.4179 	2.73898e-147
0.4186 	1.92256e-147
0.4193 	1.10614e-147
0.42 	3.18867e-148
0.4207 	2.788e-148
0.4214 	2.3909e-148
0.4221 	1.98929e-148
0.4228 	1.58768e-148
0.4235 	1.18607e-148
0.4242 	7.84455e-149
0.4249 	3.82845e-149
0.4256 	3.02038e-149
0.4263 	2.59007e-149
0.427 	2.15563e-149
0.4277 	1.72119e-149
0.4284 	1.28674e-149
0.4291 	8.52298e-150
0.4298 	4.17854e-150
0.4305 	2.79588e-150
0.4312 	2.39889e-150
0.4319 	1.99783e-150
0.4326 	1.59647e-150
0.4333 	1.19511e-150
0.434 	7.93745e-151
0.4347 	3.92382e-151
0.4354 	2.15605e-151
0.4361 	1.85283e-151
0.4368 	1.54705e-151
0.4375 	1.24057e-151
0.4382 	9.34096e-152
0.4389 	6.27618e-152
0.4396 	3.21141e-152
0.4403 	1.46395e-152
0.441 	1.26043e-152
0.4417 	1.05558e-152
0.4424 	8.49986e-153
0.4431 	6.44395e-153
0.4438 	4.38805e-153
0.4445 	2.33215e-153
0.4452 	8.86456e-154
0.4459 	7.64834e-154
0.4466 	6.42536e-154
0.4473 	5.19564e-154
0.448 	3.96591e-154
0.4487 	2.73618e-154
0.4494 	1.50645e-154
0.4501 	4.75392e-155
0.4508 	4.11161e-155
0.4515 	3.46618e-155
0.4522 	2.81515e-155
0.4529 	2.16411e-155
0.4536 	1.51307e-155
0.4543 	8.62028e-156
0.455 	2.26893e-156
0.4557 	1.96663e-156
0.4564 	1.66427e-156
0.4571 	1.35787e-156
0.4578 	1.05148e-156
0.4585 	7.4508e-157
0.4592 	4.38684e-157
0.4599 	1.32289e-157
0.4606 	8.44998e-158
0.4613 	7.18012e-158
0.462 	5.88529e-158
0.4627 	4.59045e-158
0.4634 	3.29562e-158
0.4641 	2.00078e-158
0.4648 	7.05947e-159
0.4655 	3.28037e-159
0.4662 	2.79843e-159
0.4669 	2.30499e-159
0.4676 	1.81067e-159
0.4683 	1.31634e-159
0.469 	8.22019e-160
0.4697 	3.27695e-160
0.4704 	1.15505e-160
0.4711 	9.88858e-161
0.4718 	8.18786e-161
0.4725 	6.47655e-161
0.4732 	4.76525e-161
0.4739 	3.05395e-161
0.4746 	1.34265e-161
0.4753 	3.7081e-162
0.476 	3.18493e-162
0.4767 	2.65097e-162
0.4774 	2.11102e-162
0.4781 	1.57107e-162
0.4788 	1.03112e-162
0.4795 	4.91175e-163
0.4802 	1.09141e-163
0.4809 	9.40026e-164
0.4816 	7.86289e-164
0.4823 	6.30196e-164
0.483 	4.74102e-164
0.4837 	3.18009e-164
0.4844 	1.61916e-164
0.4851 	2.95575e-165
0.4858 	2.55107e-165
0.4865 	2.14281e-165
0.4872 	1.72809e-165
0.4879 	1.31337e-165
0.4886 	8.98658e-166
0.4893 	4.83941e-166
0.49 	7.38242e-167
0.4907 	6.37848e-167
0.4914 	5.37295e-167
0.4921 	4.3589e-167
0.4928 	3.34485e-167
0.4935 	2.3308e-167
0.4942 	1.31676e-167
0.4949 	3.02707e-168
0.4956 	1.47389e-168
0.4963 	1.24244e-168
0.497 	1.01372e-168
0.4977 	7.85006e-169
0.4984 	5.56286e-169
0.4991 	3.27567e-169
0.4998 	9.88476e-170
0.5005 	3.16351e-170
0.5012 	2.66248e-170
0.5019 	2.18293e-170
0.5026 	1.70503e-170
0.5033 	1.22713e-170
0.504 	7.49234e-171
0.5047 	2.71335e-171
0.5054 	6.344e-172
0.5061 	5.32422e-172
0.5068 	4.37507e-172
0.5075 	3.44519e-172
0.5082 	2.51531e-172
0.5089 	1.58542e-172
0.5096 	6.55539e-173
0.5103 	1.19523e-173
0.511 	9.9932e-174
0.5117 	8.20456e-174
0.5124 	6.51063e-174
0.5131 	4.81671e-174
0.5138 	3.12278e-174
0.5145 	1.42885e-174
0.5152 	2.1269e-175
0.5159 	1.77119e-175
0.5166 	1.44803e-175
0.5173 	1.15745e-175
0.518 	8.66861e-176
0.5187 	5.76274e-176
0.5194 	2.85686e-176
0.5201 	3.59314e-177
0.5208 	2.98248e-177
0.5215 	2.42114e-177
0.5222 	1.94853e-177
0.5229 	1.47576e-177
0.5236 	1.00299e-177
0.5243 	5.30217e-178
0.525 	5.96629e-179
0.5257 	4.79423e-179
0.5264 	3.85814e-179
0.5271 	3.12451e-179
0.5278 	2.39089e-179
0.5285 	1.65726e-179
0.5292 	9.23638e-180
0.5299 	1.90013e-180
0.5306 	7.38569e-181
0.5313 	5.89547e-181
0.532 	4.80302e-181
0.5327 	3.71057e-181
0.5334 	2.61813e-181
0.5341 	1.52568e-181
0.5348 	4.33234e-182
0.5355 	1.09379e-182
0.5362 	8.72899e-183
0.5369 	7.11424e-183
0.5376 	5.5452e-183
0.5383 	3.97616e-183
0.539 	2.40712e-183
0.5397 	8.38074e-184
0.5404 	1.56213e-184
0.5411 	1.25737e-184
0.5418 	1.02044e-184
0.5425 	8.02009e-185
0.5432 	5.83575e-185
0.5439 	3.65141e-185
0.5446 	1.46708e-185
0.5453 	2.15811e-186
0.546 	1.75689e-186
0.5467 	1.42333e-186
0.5474 	1.12736e-186
0.5481 	8.31384e-187
0.5488 	5.3541e-187
0.5495 	2.39436e-187
0.5502 	2.88898e-188
0.5509 	2.38302e-188
0.5516 	1.93448e-188
0.5523 	1.54336e-188
0.553 	1.15224e-188
0.5537 	7.61116e-189
0.5544 	3.69995e-189
0.5551 	3.74381e-190
0.5558 	3.13187e-190
0.5565 	2.55868e-190
0.5572 	2.05525e-190
0.5579 	1.55182e-190
0.5586 	1.04839e-190
0.5593 	5.44958e-191
0.56 	1.34319e-191
0.5607 	3.9681e-192
0.5614 	3.27708e-192
0.5621 	2.6491e-192
0.5628 	2.02112e-192
0.5635 	1.39313e-192
0.5642 	7.6515e-193
0.5649 	1.37167e-193
0.5656 	4.80943e-194
0.5663 	4.03131e-194
0.567 	3.27834e-194
0.5677 	2.52537e-194
0.5684 	1.77241e-194
0.5691 	1.01944e-194
0.5698 	2.66473e-195
0.5705 	5.52607e-196
0.5712 	4.71353e-196
0.5719 	3.85756e-196
0.5726 	2.99825e-196
0.5733 	2.13894e-196
0.574 	1.27964e-196
0.5747 	4.20328e-197
0.5754 	5.96648e-198
0.5761 	5.17045e-198
0.5768 	4.27374e-198
0.5775 	3.34958e-198
0.5782 	2.42541e-198
0.5789 	1.50125e-198
0.5796 	5.77081e-199
0.5803 	6.0063e-200
0.581 	5.27569e-200
0.5817 	4.41807e-200
0.5824 	3.4899e-200
0.5831 	2.56173e-200
0.5838 	1.63356e-200
0.5845 	7.05387e-201
0.5852 	5.60056e-202
0.5859 	4.97392e-202
0.5866 	4.22874e-202
0.5873 	3.36501e-202
0.588 	2.50128e-202
0.5887 	1.63755e-202
0.5894 	7.73821e-203
0.5901 	4.81098e-204
0.5908 	4.30973e-204
0.5915 	3.72325e-204
0.5922 	2.98338e-204
0.5929 	2.24351e-204
0.5936 	1.50364e-204
0.5943 	7.63767e-205
0.595 	5.61363e-205
0.5957 	3.41692e-206
0.5964 	2.99951e-206
0.5971 	2.41924e-206
0.5978 	1.83897e-206
0.5985 	1.2587e-206
0.5992 	6.78428e-207
0.5999 	9.8158e-208
0.6006 	2.46995e-208
0.6013 	2.20149e-208
0.602 	1.78662e-208
0.6027 	1.37175e-208
0.6034 	9.56885e-209
0.6041 	5.42017e-209
0.6048 	1.2715e-209
0.6055 	1.623e-210
0.6062 	1.45958e-210
0.6069 	1.19767e-210
0.6076 	9.2818e-211
0.6083 	6.58692e-211
0.609 	3.89205e-211
0.6097 	1.19717e-211
0.6104 	9.67193e-213
0.6111 	8.72131e-213
0.6118 	7.27091e-213
0.6125 	5.68421e-213
0.6132 	4.09751e-213
0.6139 	2.5108e-213
0.6146 	9.24101e-214
0.6153 	5.21767e-215
0.616 	4.71472e-215
0.6167 	3.99156e-215
0.6174 	3.14606e-215
0.6181 	2.30055e-215
0.6188 	1.45505e-215
0.6195 	6.09545e-216
0.6202 	2.54369e-217
0.6209 	2.30303e-217
0.6216 	1.97909e-217
0.6223 	1.57185e-217
0.623 	1.16461e-217
0.6237 	7.57367e-218
0.6244 	3.50127e-218
0.6251 	1.11818e-219
0.6258 	1.01453e-219
0.6265 	8.84688e-220
0.6272 	7.07709e-220
0.6279 	5.30731e-220
0.6286 	3.53753e-220
0.6293 	1.76775e-220
0.63 	2.20371e-220
0.6307 	4.01827e-222
0.6314 	3.5554e-222
0.6321 	2.86345e-222
0.6328 	2.17149e-222
0.6335 	1.47954e-222
0.6342 	7.87583e-223
0.6349 	9.56294e-224
0.6356 	1.42635e-224
0.6363 	1.28046e-224
0.637 	1.03785e-224
0.6377 	7.9524e-225
0.6384 	5.52632e-225
0.6391 	3.10023e-225
0.6398 	6.7414e-226
0.6405 	4.53587e-227
0.6412 	4.10613e-227
0.6419 	3.36763e-227
0.6426 	2.60538e-227
0.6433 	1.84312e-227
0.644 	1.08087e-227
0.6447 	3.18616e-228
0.6454 	1.30248e-229
0.6461 	1.18125e-229
0.6468 	9.85425e-230
0.6475 	7.69263e-230
0.6482 	5.53101e-230
0.6489 	3.36939e-230
0.6496 	1.20777e-230
0.6503 	3.45037e-232
0.651 	3.13121e-232
0.6517 	2.65421e-232
0.6524 	2.08951e-232
0.6531 	1.52481e-232
0.6538 	9.60111e-233
0.6545 	3.95413e-233
0.6552 	8.72923e-235
0.6559 	7.91507e-235
0.6566 	6.80533e-235
0.6573 	5.4e-235
0.658 	3.99466e-235
0.6587 	2.58933e-235
0.6594 	1.18399e-235
0.6601 	2.20053e-237
0.6608 	1.99063e-237
0.6615 	1.73165e-237
0.6622 	1.38433e-237
0.6629 	1.03701e-237
0.6636 	6.89697e-238
0.6643 	3.42379e-238
0.665 	9.78494e-238
0.6657 	5.25875e-240
0.6664 	4.61402e-240
0.6671 	3.71467e-240
0.6678 	2.81533e-240
0.6685 	1.91598e-240
0.6692 	1.01663e-240
0.6699 	1.17282e-241
0.6706 	1.5551e-242
0.6713 	1.37238e-242
0.672 	1.11225e-242
0.6727 	8.52124e-243
0.6734 	5.91997e-243
0.6741 	3.31869e-243
0.6748 	7.17414e-244
0.6755 	5.24344e-245
0.6762 	4.63118e-245
0.6769 	3.79106e-245
0.6776 	2.93341e-245
0.6783 	2.07576e-245
0.679 	1.21811e-245
0.6797 	3.60456e-246
0.6804 	1.9106e-247
0.6811 	1.68433e-247
0.6818 	1.39556e-247
0.6825 	1.08974e-247
0.6832 	7.83929e-248
0.6839 	4.78113e-248
0.6846 	1.72296e-248
0.6853 	7.0826e-250
0.686 	6.23845e-250
0.6867 	5.22342e-250
0.6874 	4.11344e-250
0.6881 	3.00347e-250
0.6888 	1.89349e-250
0.6895 	7.8352e-251
0.6902 	2.6014e-252
0.6909 	2.29113e-252
0.6916 	1.9363e-252
0.6923 	1.53693e-252
0.693 	1.13755e-252
0.6937 	7.38175e-253
0.6944 	3.38799e-253
0.6951 	9.42875e-255
0.6958 	8.31321e-255
0.6965 	7.09105e-255
0.6972 	5.67697e-255
0.6979 	4.26288e-255
0.6986 	2.8488e-255
0.6993 	1.43471e-255
0.7 	3.78188e-254
