0 	1
0.0007 	1
0.0014 	1
0.0021 	1
0.0028 	1
0.0035 	1
0.0042 	1
0.0049 	1
0.0056 	1
0.0063 	1
0.007 	1
0.0077 	1
0.0084 	1
0.0091 	1
0.0098 	1
0.0105 	1
0.0112 	1
0.0119 	1
0.0126 	1
0.0133 	1
0.014 	1
0.0147 	1
0.0154 	1
0.0161 	1
0.0168 	1
0.0175 	1
0.0182 	1
0.0189 	1
0.0196 	1
0.0203 	1
0.021 	1
0.0217 	1
0.0224 	1
0.0231 	1
0.0238 	1
0.0245 	1
0.0252 	1
0.0259 	1
0.0266 	1
0.0273 	1
0.028 	1
0.0287 	1
0.0294 	1
0.0301 	1
0.0308 	1
0.0315 	1
0.0322 	1
0.0329 	1
0.0336 	1
0.0343 	1
0.035 	1
0.0357 	1
0.0364 	1
0.0371 	1
0.0378 	1
0.0385 	1
0.0392 	1
0.0399 	1
0.0406 	1
0.0413 	1
0.042 	1
0.0427 	1
0.0434 	1
0.0441 	1
0.0448 	1
0.0455 	1
0.0462 	1
0.0469 	1
0.0476 	1
0.0483 	1
0.049 	1
0.0497 	1
0.0504 	1
0.0511 	1
0.0518 	1
0.0525 	1
0.0532 	1
0.0539 	1
0.0546 	1
0.0553 	1
0.056 	1
0.0567 	1
0.0574 	1
0.0581 	1
0.0588 	1
0.0595 	1
0.0602 	1
0.0609 	1
0.0616 	1
0.0623 	1
0.063 	1
0.0637 	1
0.0644 	1
0.0651 	1
0.0658 	1
0.0665 	1
0.0672 	1
0.0679 	1
0.0686 	1
0.0693 	1
0.07 	1
0.0707 	1
0.0714 	1
0.0721 	1
0.0728 	1
0.0735 	1
0.0742 	1
0.0749 	1
0.0756 	1
0.0763 	1
0.077 	1
0.0777 	1
0.0784 	1
0.0791 	1
0.0798 	1
0.0805 	1
0.0812 	1
0.0819 	1
0.0826 	1
0.0833 	1
0.084 	1
0.0847 	1
0.0854 	1
0.0861 	1
0.0868 	1
0.0875 	1
0.0882 	1
0.0889 	1
0.0896 	1
0.0903 	1
0.091 	1
0.0917 	1
0.0924 	1
0.0931 	1
0.0938 	1
0.0945 	1
0.0952 	1
0.0959 	1
0.0966 	1
0.0973 	1
0.098 	1
0.0987 	1
0.0994 	1
0.1001 	1
0.1008 	1
0.1015 	1
0.1022 	1
0.1029 	1
0.1036 	1
0.1043 	1
0.105 	1
0.1057 	1
0.1064 	1
0.1071 	1
0.1078 	1
0.1085 	1
0.1092 	1
0.1099 	1
0.1106 	1
0.1113 	1
0.112 	1
0.1127 	1
0.1134 	1
0.1141 	1
0.1148 	1
0.1155 	1
0.1162 	1
0.1169 	1
0.1176 	1
0.1183 	1
0.119 	1
0.1197 	1
0.1204 	1
0.1211 	1
0.1218 	1
0.1225 	1
0.1232 	1
0.1239 	1
0.1246 	1
0.1253 	1
0.126 	1
0.1267 	1
0.1274 	1
0.1281 	1
0.1288 	1
0.1295 	1
0.1302 	1
0.1309 	1
0.1316 	1
0.1323 	1
0.133 	1
0.1337 	1
0.1344 	1
0.1351 	1
0.1358 	1
0.1365 	1
0.1372 	1
0.1379 	1
0.1386 	1
0.1393 	1
0.14 	1
0.1407 	1
0.1414 	1
0.1421 	1
0.1428 	1
0.1435 	1
0.1442 	1
0.1449 	1
0.1456 	1
0.1463 	1
0.147 	1
0.1477 	1
0.1484 	1
0.1491 	1
0.1498 	1
0.1505 	1
0.1512 	1
0.1519 	1
0.1526 	1
0.1533 	1
0.154 	1
0.1547 	1
0.1554 	1
0.1561 	1
0.1568 	1
0.1575 	1
0.1582 	1
0.1589 	1
0.1596 	1
0.1603 	1
0.161 	1
0.1617 	1
0.1624 	1
0.1631 	1
0.1638 	1
0.1645 	1
0.1652 	1
0.1659 	1
0.1666 	1
0.1673 	1
0.168 	1
0.1687 	1
0.1694 	1
0.1701 	1
0.1708 	1
0.1715 	1
0.1722 	1
0.1729 	1
0.1736 	1
0.1743 	1
0.175 	1
0.1757 	1
0.1764 	1
0.1771 	1
0.1778 	1
0.1785 	1
0.1792 	1
0.1799 	1
0.1806 	1
0.1813 	1
0.182 	1
0.1827 	1
0.1834 	1
0.1841 	1
0.1848 	1
0.1855 	1
0.1862 	1
0.1869 	1
0.1876 	1
0.1883 	1
0.189 	1
0.1897 	1
0.1904 	1
0.1911 	1
0.1918 	1
0.1925 	1
0.1932 	1
0.1939 	1
0.1946 	1
0.1953 	1
0.196 	1
0.1967 	1
0.1974 	1
0.1981 	1
0.1988 	1
0.1995 	1
0.2002 	1
0.2009 	0.999999
0.2016 	0.999999
0.2023 	0.999998
0.203 	0.999998
0.2037 	0.999997
0.2044 	0.999997
0.2051 	0.99999
0.2058 	0.999946
0.2065 	0.999901
0.2072 	0.999857
0.2079 	0.999812
0.2086 	0.999767
0.2093 	0.999723
0.21 	0.999678
0.2107 	0.998932
0.2114 	0.998185
0.2121 	0.997439
0.2128 	0.996692
0.2135 	0.995946
0.2142 	0.995199
0.2149 	0.994453
0.2156 	0.980563
0.2163 	0.964472
0.217 	0.948383
0.2177 	0.932293
0.2184 	0.916204
0.2191 	0.900115
0.2198 	0.884026
0.2205 	0.83899
0.2212 	0.782358
0.2219 	0.725727
0.2226 	0.669096
0.2233 	0.612465
0.224 	0.555833
0.2247 	0.499202
0.2254 	0.444498
0.2261 	0.3913
0.2268 	0.338102
0.2275 	0.284903
0.2282 	0.231704
0.2289 	0.178505
0.2296 	0.125306
0.2303 	0.0895079
0.231 	0.0768948
0.2317 	0.0642809
0.2324 	0.0516666
0.2331 	0.0390524
0.2338 	0.0264381
0.2345 	0.0138238
0.2352 	0.00462914
0.2359 	0.00396195
0.2366 	0.00329471
0.2373 	0.00262742
0.238 	0.00196013
0.2387 	0.00129284
0.2394 	0.000625556
0.2401 	5.29209e-05
0.2408 	4.54419e-05
0.2415 	3.79623e-05
0.2422 	3.0482e-05
0.2429 	2.30016e-05
0.2436 	1.55213e-05
0.2443 	8.0409e-06
0.245 	5.65148e-07
0.2457 	4.89688e-07
0.2464 	4.14284e-07
0.2471 	3.38887e-07
0.2478 	2.6349e-07
0.2485 	1.88092e-07
0.2492 	1.12695e-07
0.2499 	3.72981e-08
0.2506 	2.35527e-08
0.2513 	2.00341e-08
0.252 	1.65169e-08
0.2527 	1.29998e-08
0.2534 	9.48259e-09
0.2541 	5.96542e-09
0.2548 	2.44825e-09
0.2555 	1.30852e-09
0.2562 	1.11712e-09
0.2569 	9.2588e-10
0.2576 	7.34648e-10
0.2583 	5.43416e-10
0.259 	3.52184e-10
0.2597 	1.60952e-10
0.2604 	7.37961e-11
0.2611 	6.45136e-11
0.2618 	5.52408e-11
0.2625 	4.59708e-11
0.2632 	3.67007e-11
0.2639 	2.74307e-11
0.2646 	1.81606e-11
0.2653 	1.23692e-11
0.266 	1.12061e-11
0.2667 	1.00445e-11
0.2674 	8.88359e-12
0.2681 	7.72271e-12
0.2688 	6.56183e-12
0.2695 	5.40094e-12
0.2702 	4.47204e-12
0.2709 	4.12197e-12
0.2716 	3.77238e-12
0.2723 	3.42328e-12
0.273 	3.07418e-12
0.2737 	2.72508e-12
0.2744 	2.37598e-12
0.2751 	2.0544e-12
0.2758 	1.89757e-12
0.2765 	1.74097e-12
0.2772 	1.58477e-12
0.2779 	1.42857e-12
0.2786 	1.27237e-12
0.2793 	1.11618e-12
0.28 	9.60009e-13
0.2807 	8.80864e-13
0.2814 	8.0183e-13
0.2821 	7.23133e-13
0.2828 	6.44435e-13
0.2835 	5.65737e-13
0.2842 	4.87039e-13
0.2849 	4.08341e-13
0.2856 	3.65531e-13
0.2863 	3.28713e-13
0.287 	2.92124e-13
0.2877 	2.55535e-13
0.2884 	2.18946e-13
0.2891 	1.82357e-13
0.2898 	1.45768e-13
0.2905 	1.25419e-13
0.2912 	1.11561e-13
0.2919 	9.78031e-14
0.2926 	8.40526e-14
0.2933 	7.03022e-14
0.294 	5.65517e-14
0.2947 	4.28013e-14
0.2954 	3.46174e-14
0.2961 	3.06037e-14
0.2968 	2.66173e-14
0.2975 	2.26382e-14
0.2982 	1.86592e-14
0.2989 	1.46802e-14
0.2996 	1.07012e-14
0.3003 	8.02545e-15
0.301 	7.08492e-15
0.3017 	6.15007e-15
0.3024 	5.21836e-15
0.3031 	4.28665e-15
0.3038 	3.35494e-15
0.3045 	2.42323e-15
0.3052 	1.70111e-15
0.3059 	1.50195e-15
0.3066 	1.30378e-15
0.3073 	1.10662e-15
0.308 	9.0945e-16
0.3087 	7.12283e-16
0.3094 	5.15117e-16
0.3101 	3.40436e-16
0.3108 	3.0022e-16
0.3115 	2.60157e-16
0.3122 	2.20369e-16
0.3129 	1.80581e-16
0.3136 	1.40793e-16
0.3143 	1.01005e-16
0.315 	6.12344e-17
0.3157 	5.38711e-17
0.3164 	4.65295e-17
0.3171 	3.92531e-17
0.3178 	3.19766e-17
0.3185 	2.47001e-17
0.3192 	1.74236e-17
0.3199 	1.01472e-17
0.3206 	8.14157e-18
0.3213 	7.01216e-18
0.322 	5.89522e-18
0.3227 	4.77827e-18
0.3234 	3.66132e-18
0.3241 	2.54437e-18
0.3248 	1.42742e-18
0.3255 	1.00805e-18
0.3262 	8.67047e-19
0.3269 	7.27671e-19
0.3276 	5.8842e-19
0.3283 	4.49169e-19
0.329 	3.09918e-19
0.3297 	1.70666e-19
0.3304 	1.02818e-19
0.3311 	8.84077e-20
0.3318 	7.41443e-20
0.3325 	5.99211e-20
0.3332 	4.56979e-20
0.3339 	3.14746e-20
0.3346 	1.72514e-20
0.3353 	8.61343e-21
0.336 	7.40594e-21
0.3367 	6.20892e-21
0.3374 	5.01772e-21
0.3381 	3.82652e-21
0.3388 	2.63532e-21
0.3395 	1.44412e-21
0.3402 	5.71051e-22
0.3409 	4.91107e-22
0.3416 	4.11725e-22
0.3423 	3.32904e-22
0.343 	2.54082e-22
0.3437 	1.75261e-22
0.3444 	9.644e-23
0.3451 	2.83591e-23
0.3458 	2.4409e-23
0.3465 	2.04797e-23
0.3472 	1.65877e-23
0.3479 	1.26958e-23
0.3486 	8.80382e-24
0.3493 	4.91187e-24
0.35 	1.02232e-24
0.3507 	8.81574e-25
0.3514 	7.41402e-25
0.3521 	6.02956e-25
0.3528 	4.64509e-25
0.3535 	3.26063e-25
0.3542 	1.87617e-25
0.3549 	4.91712e-26
0.3556 	2.60314e-26
0.3563 	2.20156e-26
0.357 	1.8062e-26
0.3577 	1.41084e-26
0.3584 	1.01548e-26
0.3591 	6.20115e-27
0.3598 	2.24753e-27
0.3605 	1.01369e-27
0.3612 	8.64433e-28
0.3619 	7.1745e-28
0.3626 	5.70641e-28
0.3633 	4.23832e-28
0.364 	2.77023e-28
0.3647 	1.30215e-28
0.3654 	6.22407e-29
0.3661 	5.32486e-29
0.3668 	4.43599e-29
0.3675 	3.54994e-29
0.3682 	2.6639e-29
0.3689 	1.77785e-29
0.3696 	8.91804e-30
0.3703 	3.6336e-30
0.371 	3.10571e-30
0.3717 	2.58213e-30
0.3724 	2.06097e-30
0.3731 	1.5398e-30
0.3738 	1.01863e-30
0.3745 	4.97456e-31
0.3752 	1.20502e-31
0.3759 	1.03005e-31
0.3766 	8.56047e-32
0.3773 	6.83017e-32
0.378 	5.09987e-32
0.3787 	3.36957e-32
0.3794 	1.63927e-32
0.3801 	1.54101e-33
0.3808 	1.32005e-33
0.3815 	1.09984e-33
0.3822 	8.81008e-34
0.3829 	6.62172e-34
0.3836 	4.43336e-34
0.3843 	2.245e-34
0.385 	5.80785e-36
0.3857 	4.98989e-36
0.3864 	4.17414e-36
0.3871 	3.36343e-36
0.3878 	2.55271e-36
0.3885 	1.74199e-36
0.3892 	9.31276e-37
0.3899 	1.2056e-37
0.3906 	4.64114e-39
0.3913 	3.8999e-39
0.392 	3.1622e-39
0.3927 	2.4245e-39
0.3934 	1.6868e-39
0.3941 	9.49099e-40
0.3948 	2.114e-40
0.3955 	1.00333e-42
0.3962 	8.4678e-43
0.3969 	6.90998e-43
0.3976 	5.35275e-43
0.3983 	3.79552e-43
0.399 	2.23829e-43
0.3997 	6.81055e-44
0.4004 	1.34914e-45
0.4011 	1.13915e-45
0.4018 	9.36311e-46
0.4025 	7.35423e-46
0.4032 	5.34534e-46
0.4039 	3.33646e-46
0.4046 	1.32757e-46
0.4053 	1.69709e-47
0.406 	1.43577e-47
0.4067 	1.18351e-47
0.4074 	9.3629e-48
0.4081 	6.8907e-48
0.4088 	4.41849e-48
0.4095 	1.94629e-48
0.4102 	1.7442e-49
0.4109 	1.47925e-49
0.4116 	1.22161e-49
0.4123 	9.71269e-50
0.413 	7.20929e-50
0.4137 	4.70589e-50
0.4144 	2.20249e-50
0.4151 	5.71202e-52
0.4158 	4.86292e-52
0.4165 	4.02944e-52
0.4172 	3.22411e-52
0.4179 	2.41877e-52
0.4186 	1.61343e-52
0.4193 	8.08098e-53
0.42 	3.28585e-55
0.4207 	2.80876e-55
0.4214 	2.33717e-55
0.4221 	1.88272e-55
0.4228 	1.42826e-55
0.4235 	9.73804e-56
0.4242 	5.19348e-56
0.4249 	6.48919e-57
0.4256 	2.31762e-59
0.4263 	1.93636e-59
0.427 	1.57004e-59
0.4277 	1.20372e-59
0.4284 	8.37394e-60
0.4291 	4.71071e-60
0.4298 	1.04749e-60
0.4305 	3.00716e-63
0.4312 	2.70952e-63
0.4319 	2.39594e-63
0.4326 	2.08114e-63
0.4333 	1.76633e-63
0.434 	1.45153e-63
0.4347 	1.13672e-63
0.4354 	9.91974e-64
0.4361 	9.74553e-64
0.4368 	9.44278e-64
0.4375 	9.10496e-64
0.4382 	8.76714e-64
0.4389 	8.42932e-64
0.4396 	8.09151e-64
0.4403 	7.82862e-64
0.441 	7.66678e-64
0.4417 	7.40223e-64
0.4424 	7.08062e-64
0.4431 	6.75901e-64
0.4438 	6.4374e-64
0.4445 	6.11579e-64
0.4452 	5.84089e-64
0.4459 	5.68464e-64
0.4466 	5.45195e-64
0.4473 	5.14279e-64
0.448 	4.83364e-64
0.4487 	4.52448e-64
0.4494 	4.21533e-64
0.4501 	3.93346e-64
0.4508 	3.81865e-64
0.4515 	3.66461e-64
0.4522 	3.43995e-64
0.4529 	3.21528e-64
0.4536 	2.99062e-64
0.4543 	2.76596e-64
0.455 	6.59293e-64
0.4557 	2.4875e-64
0.4564 	2.42315e-64
0.4571 	2.31927e-64
0.4578 	2.21539e-64
0.4585 	2.11151e-64
0.4592 	2.00763e-64
0.4599 	1.90375e-64
0.4606 	1.86343e-64
0.4613 	1.83186e-64
0.462 	1.77552e-64
0.4627 	1.71917e-64
0.4634 	1.66283e-64
0.4641 	1.60649e-64
0.4648 	1.55015e-64
0.4655 	1.49913e-64
0.4662 	1.45036e-64
0.4669 	1.36451e-64
0.4676 	1.27581e-64
0.4683 	1.18712e-64
0.469 	1.09842e-64
0.4697 	1.00972e-64
0.4704 	9.42804e-65
0.4711 	8.92573e-65
0.4718 	8.12266e-65
0.4725 	7.23756e-65
0.4732 	6.35245e-65
0.4739 	5.46735e-65
0.4746 	4.58225e-65
0.4753 	3.9858e-65
0.476 	3.7763e-65
0.4767 	3.45846e-65
0.4774 	3.08043e-65
0.4781 	2.7024e-65
0.4788 	2.32437e-65
0.4795 	1.94633e-65
0.4802 	1.6624e-65
0.4809 	1.61387e-65
0.4816 	1.54292e-65
0.4823 	1.44954e-65
0.483 	1.35617e-65
0.4837 	1.26279e-65
0.4844 	1.16942e-65
0.4851 	1.08344e-65
0.4858 	1.04237e-65
0.4865 	9.87331e-66
0.4872 	9.07155e-66
0.4879 	8.26979e-66
0.4886 	7.46803e-66
0.4893 	6.66627e-66
0.49 	5.92637e-66
0.4907 	5.49876e-66
0.4914 	5.06437e-66
0.4921 	4.372e-66
0.4928 	3.67963e-66
0.4935 	2.98726e-66
0.4942 	2.29489e-66
0.4949 	1.60253e-66
0.4956 	1.39937e-66
0.4963 	1.27132e-66
0.497 	1.05206e-66
0.4977 	8.32802e-67
0.4984 	6.13542e-67
0.4991 	3.94281e-67
0.4998 	1.75021e-67
0.5005 	1.04673e-67
0.5012 	9.3807e-68
0.5019 	7.71999e-68
0.5026 	6.01512e-68
0.5033 	4.31025e-68
0.504 	2.60538e-68
0.5047 	9.0051e-69
0.5054 	1.57356e-69
0.5061 	1.33829e-69
0.5068 	1.10034e-69
0.5075 	8.61648e-70
0.5082 	6.22959e-70
0.5089 	3.8427e-70
0.5096 	1.45581e-70
0.5103 	8.52287e-72
0.511 	6.6409e-72
0.5117 	5.28242e-72
0.5124 	4.21477e-72
0.5131 	3.14713e-72
0.5138 	2.07948e-72
0.5145 	1.01183e-72
0.5152 	2.4266e-73
0.5159 	2.17722e-73
0.5166 	1.91336e-73
0.5173 	1.63502e-73
0.518 	1.35668e-73
0.5187 	1.07835e-73
0.5194 	8.00007e-74
0.5201 	5.57156e-74
0.5208 	5.27207e-74
0.5215 	4.87364e-74
0.5222 	4.29709e-74
0.5229 	3.72054e-74
0.5236 	3.144e-74
0.5243 	2.56745e-74
0.525 	2.30172e-74
0.5257 	1.86387e-74
0.5264 	1.71037e-74
0.5271 	1.45794e-74
0.5278 	1.2055e-74
0.5285 	9.53071e-75
0.5292 	7.00637e-75
0.5299 	4.48203e-75
0.5306 	3.85556e-75
0.5313 	3.52481e-75
0.532 	2.91068e-75
0.5327 	2.29655e-75
0.5334 	1.68242e-75
0.5341 	1.06829e-75
0.5348 	4.54162e-76
0.5355 	2.6263e-76
0.5362 	2.39901e-76
0.5369 	1.96002e-76
0.5376 	1.50475e-76
0.5383 	1.04947e-76
0.539 	5.94193e-77
0.5397 	1.38917e-77
0.5404 	-5.08372e-78
0.5411 	-4.18606e-78
0.5418 	-4.53508e-78
0.5425 	-5.22409e-78
0.5432 	-5.91311e-78
0.5439 	-6.60212e-78
0.5446 	-7.29114e-78
0.5453 	-7.05693e-78
0.546 	-5.59066e-78
0.5467 	-5.06868e-78
0.5474 	-5.0713e-78
0.5481 	-5.07392e-78
0.5488 	-5.07655e-78
0.5495 	-5.07917e-78
0.5502 	-4.74788e-78
0.5509 	-3.57938e-78
0.5516 	-2.99518e-78
0.5523 	-2.99529e-78
0.553 	-2.9954e-78
0.5537 	-2.99551e-78
0.5544 	-2.99562e-78
0.5551 	-2.88675e-78
0.5558 	-2.12076e-78
0.5565 	-1.62834e-78
0.5572 	-1.62836e-78
0.5579 	-1.62837e-78
0.5586 	-1.62838e-78
0.5593 	-1.62839e-78
0.56 	-1.62895e-78
0.5607 	-1.18278e-78
0.5614 	-8.32435e-79
0.5621 	-8.32438e-79
0.5628 	-8.32442e-79
0.5635 	-8.32445e-79
0.5642 	-8.32448e-79
0.5649 	-8.32451e-79
0.5656 	-6.27361e-79
0.5663 	-4.05025e-79
0.567 	-4.05026e-79
0.5677 	-4.05026e-79
0.5684 	-4.05026e-79
0.5691 	-4.05027e-79
0.5698 	-4.05027e-79
0.5705 	-3.18613e-79
0.5712 	-1.97533e-79
0.5719 	-1.88883e-79
0.5726 	-1.88882e-79
0.5733 	-1.8888e-79
0.574 	-1.88879e-79
0.5747 	-1.88878e-79
0.5754 	-1.55588e-79
0.5761 	-9.72731e-80
0.5768 	-8.47757e-80
0.5775 	-8.4774e-80
0.5782 	-8.47723e-80
0.5789 	-8.47707e-80
0.5796 	-8.4769e-80
0.5803 	-7.32472e-80
0.581 	-4.63283e-80
0.5817 	-3.67137e-80
0.5824 	-3.67125e-80
0.5831 	-3.67112e-80
0.5838 	-3.671e-80
0.5845 	-3.67088e-80
0.5852 	-3.32996e-80
0.5859 	-2.1346e-80
0.5866 	-1.53688e-80
0.5873 	-1.53681e-80
0.588 	-1.53674e-80
0.5887 	-1.53667e-80
0.5894 	-1.5366e-80
0.5901 	-1.46371e-80
0.5908 	-9.51841e-81
0.5915 	-6.22768e-81
0.5922 	-6.22731e-81
0.5929 	-6.22695e-81
0.5936 	-6.22658e-81
0.5943 	-6.22622e-81
0.595 	-6.22788e-81
0.5957 	-4.10958e-81
0.5964 	-2.44579e-81
0.5971 	-2.44561e-81
0.5978 	-2.44544e-81
0.5985 	-2.44527e-81
0.5992 	-2.44509e-81
0.5999 	-2.44492e-81
0.6006 	-1.71895e-81
0.6013 	-9.31977e-82
0.602 	-9.31899e-82
0.6027 	-9.31821e-82
0.6034 	-9.31744e-82
0.6041 	-9.31666e-82
0.6048 	-9.31588e-82
0.6055 	-6.97027e-82
0.6062 	-3.68407e-82
0.6069 	-3.44903e-82
0.6076 	-3.4487e-82
0.6083 	-3.44836e-82
0.609 	-3.44803e-82
0.6097 	-3.4477e-82
0.6104 	-2.742e-82
0.6111 	-1.50603e-82
0.6118 	-1.24107e-82
0.6125 	-1.24093e-82
0.6132 	-1.2408e-82
0.6139 	-1.24066e-82
0.6146 	-1.24052e-82
0.6153 	-1.04724e-82
0.616 	-5.95831e-83
0.6167 	-4.34577e-83
0.6174 	-4.34523e-83
0.6181 	-4.34469e-83
0.6188 	-4.34415e-83
0.6195 	-4.3436e-83
0.6202 	-3.88624e-83
0.6209 	-2.28357e-83
0.6216 	-1.48213e-83
0.6223 	-1.48192e-83
0.623 	-1.48171e-83
0.6237 	-1.48151e-83
0.6244 	-1.4813e-83
0.6251 	-1.40235e-83
0.6258 	-8.48685e-84
0.6265 	-4.92732e-84
0.6272 	-4.92655e-84
0.6279 	-4.92579e-84
0.6286 	-4.92502e-84
0.6293 	-4.92425e-84
0.63 	-4.92506e-84
0.6307 	-3.06172e-84
0.6314 	-1.59801e-84
0.6321 	-1.59774e-84
0.6328 	-1.59746e-84
0.6335 	-1.59719e-84
0.6342 	-1.59691e-84
0.6349 	-1.59664e-84
0.6356 	-1.07328e-84
0.6363 	-5.05964e-85
0.637 	-5.05869e-85
0.6377 	-5.05773e-85
0.6384 	-5.05677e-85
0.6391 	-5.05581e-85
0.6398 	-5.05485e-85
0.6405 	-3.65944e-85
0.6412 	-1.70469e-85
0.6419 	-1.56477e-85
0.6426 	-1.56444e-85
0.6433 	-1.56412e-85
0.644 	-1.5638e-85
0.6447 	-1.56347e-85
0.6454 	-1.21476e-85
0.6461 	-6.04131e-86
0.6468 	-4.732e-86
0.6475 	-4.73093e-86
0.6482 	-4.72987e-86
0.6489 	-4.72881e-86
0.6496 	-4.72775e-86
0.6503 	-3.92947e-86
0.651 	-2.06577e-86
0.6517 	-1.39995e-86
0.6524 	-1.39961e-86
0.6531 	-1.39927e-86
0.6538 	-1.39893e-86
0.6545 	-1.39859e-86
0.6552 	-1.23976e-86
0.6559 	-6.83583e-87
0.6566 	-4.05443e-87
0.6573 	-4.05337e-87
0.658 	-4.05232e-87
0.6587 	-4.05127e-87
0.6594 	-4.05022e-87
0.6601 	-3.81825e-87
0.6608 	-2.19426e-87
0.6615 	-1.15015e-87
0.6622 	-1.14983e-87
0.6629 	-1.14951e-87
0.6636 	-1.1492e-87
0.6643 	-1.14888e-87
0.665 	-1.14893e-87
0.6657 	-6.84547e-88
0.6664 	-3.19736e-88
0.6671 	-3.19642e-88
0.6678 	-3.19549e-88
0.6685 	-3.19456e-88
0.6692 	-3.19362e-88
0.6699 	-3.19269e-88
0.6706 	-2.07872e-88
0.6713 	-8.71239e-89
0.672 	-8.70972e-89
0.6727 	-8.70704e-89
0.6734 	-8.70436e-89
0.6741 	-8.70169e-89
0.6748 	-8.69901e-89
0.6755 	-6.15068e-89
0.6762 	-2.58126e-89
0.6769 	-2.3256e-89
0.6776 	-2.32486e-89
0.6783 	-2.32411e-89
0.679 	-2.32336e-89
0.6797 	-2.32262e-89
0.6804 	-1.77408e-89
0.6811 	-8.13762e-90
0.6818 	-6.07819e-90
0.6825 	-6.07616e-90
0.6832 	-6.07413e-90
0.6839 	-6.0721e-90
0.6846 	-6.07007e-90
0.6853 	-4.98586e-90
0.686 	-2.4554e-90
0.6867 	-1.55132e-90
0.6874 	-1.55079e-90
0.6881 	-1.55025e-90
0.6888 	-1.54971e-90
0.6895 	-1.54918e-90
0.6902 	-1.36294e-90
0.6909 	-7.11151e-91
0.6916 	-3.85189e-91
0.6923 	-3.85051e-91
0.693 	-3.84914e-91
0.6937 	-3.84777e-91
0.6944 	-3.8464e-91
0.6951 	-3.6583e-91
0.6958 	-2.34464e-91
0.6965 	-1.50005e-91
0.6972 	-1.49978e-91
0.6979 	-1.49951e-91
0.6986 	-1.49923e-91
0.6993 	-1.49896e-91
0.7 	-1.49916e-91
