0 	1
0.0007 	1
0.0014 	1
0.0021 	1
0.0028 	1
0.0035 	1
0.0042 	1
0.0049 	1
0.0056 	1
0.0063 	1
0.007 	1
0.0077 	1
0.0084 	1
0.0091 	1
0.0098 	1
0.0105 	1
0.0112 	1
0.0119 	1
0.0126 	1
0.0133 	1
0.014 	1
0.0147 	1
0.0154 	1
0.0161 	1
0.0168 	1
0.0175 	1
0.0182 	1
0.0189 	1
0.0196 	1
0.0203 	1
0.021 	1
0.0217 	1
0.0224 	1
0.0231 	1
0.0238 	1
0.0245 	1
0.0252 	1
0.0259 	1
0.0266 	1
0.0273 	1
0.028 	1
0.0287 	1
0.0294 	1
0.0301 	1
0.0308 	1
0.0315 	1
0.0322 	1
0.0329 	1
0.0336 	1
0.0343 	1
0.035 	1
0.0357 	1
0.0364 	1
0.0371 	1
0.0378 	1
0.0385 	1
0.0392 	1
0.0399 	1
0.0406 	1
0.0413 	1
0.042 	1
0.0427 	1
0.0434 	1
0.0441 	1
0.0448 	1
0.0455 	1
0.0462 	1
0.0469 	1
0.0476 	1
0.0483 	1
0.049 	1
0.0497 	1
0.0504 	1
0.0511 	1
0.0518 	1
0.0525 	1
0.0532 	1
0.0539 	1
0.0546 	1
0.0553 	1
0.056 	1
0.0567 	1
0.0574 	1
0.0581 	1
0.0588 	1
0.0595 	1
0.0602 	1
0.0609 	1
0.0616 	1
0.0623 	1
0.063 	1
0.0637 	1
0.0644 	1
0.0651 	1
0.0658 	1
0.0665 	1
0.0672 	1
0.0679 	1
0.0686 	1
0.0693 	1
0.07 	1
0.0707 	1
0.0714 	1
0.0721 	1
0.0728 	1
0.0735 	1
0.0742 	1
0.0749 	1
0.0756 	1
0.0763 	1
0.077 	1
0.0777 	1
0.0784 	1
0.0791 	1
0.0798 	1
0.0805 	1
0.0812 	1
0.0819 	1
0.0826 	1
0.0833 	1
0.084 	1
0.0847 	1
0.0854 	1
0.0861 	1
0.0868 	1
0.0875 	1
0.0882 	1
0.0889 	1
0.0896 	1
0.0903 	1
0.091 	1
0.0917 	1
0.0924 	1
0.0931 	1
0.0938 	1
0.0945 	1
0.0952 	1
0.0959 	1
0.0966 	1
0.0973 	1
0.098 	1
0.0987 	1
0.0994 	1
0.1001 	1
0.1008 	1
0.1015 	1
0.1022 	1
0.1029 	1
0.1036 	1
0.1043 	1
0.105 	1
0.1057 	1
0.1064 	1
0.1071 	1
0.1078 	1
0.1085 	1
0.1092 	1
0.1099 	1
0.1106 	1
0.1113 	1
0.112 	1
0.1127 	1
0.1134 	1
0.1141 	1
0.1148 	1
0.1155 	1
0.1162 	1
0.1169 	1
0.1176 	1
0.1183 	1
0.119 	1
0.1197 	1
0.1204 	1
0.1211 	1
0.1218 	1
0.1225 	1
0.1232 	1
0.1239 	1
0.1246 	1
0.1253 	1
0.126 	1
0.1267 	1
0.1274 	1
0.1281 	1
0.1288 	1
0.1295 	1
0.1302 	1
0.1309 	1
0.1316 	1
0.1323 	1
0.133 	1
0.1337 	1
0.1344 	1
0.1351 	1
0.1358 	1
0.1365 	1
0.1372 	1
0.1379 	1
0.1386 	1
0.1393 	1
0.14 	1
0.1407 	1
0.1414 	1
0.1421 	1
0.1428 	1
0.1435 	1
0.1442 	1
0.1449 	1
0.1456 	1
0.1463 	1
0.147 	1
0.1477 	1
0.1484 	1
0.1491 	1
0.1498 	1
0.1505 	1
0.1512 	1
0.1519 	1
0.1526 	1
0.1533 	1
0.154 	1
0.1547 	1
0.1554 	1
0.1561 	1
0.1568 	1
0.1575 	1
0.1582 	1
0.1589 	1
0.1596 	1
0.1603 	1
0.161 	1
0.1617 	1
0.1624 	1
0.1631 	1
0.1638 	1
0.1645 	1
0.1652 	1
0.1659 	1
0.1666 	1
0.1673 	1
0.168 	1
0.1687 	1
0.1694 	1
0.1701 	1
0.1708 	1
0.1715 	1
0.1722 	1
0.1729 	1
0.1736 	1
0.1743 	1
0.175 	1
0.1757 	1
0.1764 	1
0.1771 	1
0.1778 	1
0.1785 	1
0.1792 	1
0.1799 	1
0.1806 	1
0.1813 	1
0.182 	1
0.1827 	1
0.1834 	1
0.1841 	1
0.1848 	1
0.1855 	1
0.1862 	1
0.1869 	1
0.1876 	1
0.1883 	1
0.189 	1
0.1897 	1
0.1904 	1
0.1911 	1
0.1918 	1
0.1925 	1
0.1932 	1
0.1939 	1
0.1946 	1
0.1953 	1
0.196 	1
0.1967 	1
0.1974 	1
0.1981 	1
0.1988 	1
0.1995 	1
0.2002 	1
0.2009 	1
0.2016 	1
0.2023 	1
0.203 	1
0.2037 	1
0.2044 	1
0.2051 	1
0.2058 	1
0.2065 	1
0.2072 	1
0.2079 	1
0.2086 	1
0.2093 	1
0.21 	1
0.2107 	1
0.2114 	1
0.2121 	1
0.2128 	1
0.2135 	1
0.2142 	1
0.2149 	1
0.2156 	1
0.2163 	1
0.217 	1
0.2177 	1
0.2184 	1
0.2191 	1
0.2198 	1
0.2205 	1
0.2212 	1
0.2219 	1
0.2226 	1
0.2233 	1
0.224 	1
0.2247 	1
0.2254 	1
0.2261 	1
0.2268 	1
0.2275 	1
0.2282 	1
0.2289 	1
0.2296 	1
0.2303 	1
0.231 	1
0.2317 	1
0.2324 	1
0.2331 	1
0.2338 	1
0.2345 	1
0.2352 	1
0.2359 	1
0.2366 	1
0.2373 	1
0.238 	1
0.2387 	1
0.2394 	1
0.2401 	0.999984
0.2408 	0.999875
0.2415 	0.999757
0.2422 	0.999623
0.2429 	0.999489
0.2436 	0.999355
0.2443 	0.999222
0.245 	0.999088
0.2457 	0.929276
0.2464 	0.859468
0.2471 	0.789676
0.2478 	0.719885
0.2485 	0.650094
0.2492 	0.580302
0.2499 	0.510511
0.2506 	0.440631
0.2513 	0.370742
0.252 	0.300876
0.2527 	0.23101
0.2534 	0.161144
0.2541 	0.0912775
0.2548 	0.0214114
0.2555 	0.00131791
0.2562 	0.0011311
0.2569 	0.000924009
0.2576 	0.000715361
0.2583 	0.000506713
0.259 	0.000298065
0.2597 	8.94168e-05
0.2604 	1.42176e-09
0.2611 	1.10589e-09
0.2618 	8.85936e-10
0.2625 	6.92136e-10
0.2632 	4.98337e-10
0.2639 	3.04537e-10
0.2646 	1.10738e-10
0.2653 	1.61494e-16
0.266 	6.68893e-17
0.2667 	2.91296e-17
0.2674 	2.29506e-17
0.2681 	1.67715e-17
0.2688 	1.05925e-17
0.2695 	4.41348e-18
0.2702 	4.4566e-23
0.2709 	1.50621e-23
0.2716 	2.81156e-25
0.2723 	2.23274e-25
0.273 	1.65391e-25
0.2737 	1.07508e-25
0.2744 	4.96254e-26
0.2751 	1.2144e-29
0.2758 	4.76404e-30
0.2765 	1.84799e-32
0.2772 	1.47845e-32
0.2779 	1.1089e-32
0.2786 	7.3935e-33
0.2793 	3.69802e-33
0.28 	2.64571e-36
0.2807 	1.16575e-36
0.2814 	2.80184e-39
0.2821 	2.25712e-39
0.2828 	1.7124e-39
0.2835 	1.16768e-39
0.2842 	6.22957e-40
0.2849 	7.82371e-41
0.2856 	2.26396e-43
0.2863 	4.18363e-46
0.287 	3.39224e-46
0.2877 	2.60086e-46
0.2884 	1.80947e-46
0.2891 	1.01808e-46
0.2898 	2.26692e-47
0.2905 	3.62584e-50
0.2912 	2.47206e-51
0.2919 	4.85737e-53
0.2926 	3.7607e-53
0.2933 	2.66403e-53
0.294 	1.56736e-53
0.2947 	4.70687e-54
0.2954 	4.87365e-57
0.2961 	8.67107e-58
0.2968 	7.3058e-60
0.2975 	5.70781e-60
0.2982 	4.10982e-60
0.2989 	2.51182e-60
0.2996 	9.13832e-61
0.3003 	5.62154e-64
0.301 	1.48987e-64
0.3017 	1.25659e-66
0.3024 	9.90052e-67
0.3031 	7.23515e-67
0.3038 	4.56979e-67
0.3045 	1.90443e-67
0.3052 	5.64845e-71
0.3059 	1.90119e-71
0.3066 	2.49886e-73
0.3073 	1.9844e-73
0.308 	1.46994e-73
0.3087 	9.55472e-74
0.3094 	4.41008e-74
0.3101 	5.00628e-78
0.3108 	1.99513e-78
0.3115 	5.54327e-80
0.3122 	4.43462e-80
0.3129 	3.32596e-80
0.3136 	2.21731e-80
0.3143 	1.10866e-80
0.315 	4.00397e-85
0.3157 	1.83806e-85
0.3164 	1.30818e-86
0.3171 	1.05381e-86
0.3178 	7.99439e-87
0.3185 	5.4507e-87
0.3192 	2.90702e-87
0.3199 	3.63335e-88
0.3206 	1.63322e-92
0.3213 	3.14835e-93
0.322 	2.55272e-93
0.3227 	1.95708e-93
0.3234 	1.36144e-93
0.3241 	7.65804e-94
0.3248 	1.70166e-94
0.3255 	1.67246e-99
0.3262 	7.99452e-100
0.3269 	6.09331e-100
0.3276 	4.71739e-100
0.3283 	3.34147e-100
0.329 	1.96556e-100
0.3297 	5.89639e-101
0.3304 	2.32729e-106
0.3311 	1.75283e-106
0.3318 	1.3907e-106
0.3325 	1.08648e-106
0.3332 	7.82266e-107
0.3339 	4.78048e-107
0.3346 	1.7383e-107
0.3353 	4.09443e-113
0.336 	3.57684e-113
0.3367 	2.98494e-113
0.3374 	2.35177e-113
0.3381 	1.71859e-113
0.3388 	1.08542e-113
0.3395 	4.52247e-114
0.3402 	7.5787e-120
0.3409 	6.88173e-120
0.3416 	5.92348e-120
0.3423 	4.70393e-120
0.343 	3.48438e-120
0.3437 	2.26484e-120
0.3444 	1.04529e-120
0.3451 	1.34208e-126
0.3458 	1.2305e-126
0.3465 	1.08151e-126
0.3472 	8.65208e-127
0.3479 	6.48904e-127
0.3486 	4.32601e-127
0.3493 	2.16297e-127
0.35 	2.19437e-133
0.3507 	2.01775e-133
0.3514 	1.80383e-133
0.3521 	1.45309e-133
0.3528 	1.10234e-133
0.3535 	7.51591e-134
0.3542 	4.00843e-134
0.3549 	5.00957e-135
0.3556 	3.01495e-140
0.3563 	2.73716e-140
0.357 	2.21932e-140
0.3577 	1.70147e-140
0.3584 	1.18363e-140
0.3591 	6.65783e-141
0.3598 	1.47939e-141
0.3605 	4.89002e-147
0.3612 	4.42906e-147
0.3619 	3.63457e-147
0.3626 	2.81443e-147
0.3633 	1.99429e-147
0.364 	1.17415e-147
0.3647 	3.54009e-148
0.3654 	2.42855e-150
0.3661 	2.22005e-150
0.3668 	1.85655e-150
0.3675 	1.45077e-150
0.3682 	1.045e-150
0.3689 	6.39231e-151
0.3696 	2.33459e-151
0.3703 	1.54808e-153
0.371 	1.41955e-153
0.3717 	1.20891e-153
0.3724 	9.52658e-154
0.3731 	6.96404e-154
0.3738 	4.4015e-154
0.3745 	1.83896e-154
0.3752 	8.46621e-157
0.3759 	7.77315e-157
0.3766 	6.73381e-157
0.3773 	5.34818e-157
0.378 	3.96255e-157
0.3787 	2.57692e-157
0.3794 	1.19129e-157
0.3801 	3.60696e-160
0.3808 	3.31515e-160
0.3815 	2.91913e-160
0.3822 	2.33555e-160
0.3829 	1.75196e-160
0.3836 	1.16837e-160
0.3843 	5.8478e-161
0.385 	1.21093e-163
0.3857 	1.11407e-163
0.3864 	9.9647e-164
0.3871 	8.02774e-164
0.3878 	6.09078e-164
0.3885 	4.15382e-164
0.3892 	2.21686e-164
0.3899 	2.79897e-165
0.3906 	3.03215e-167
0.3913 	2.75318e-167
0.392 	2.23244e-167
0.3927 	1.7117e-167
0.3934 	1.19096e-167
0.3941 	6.70227e-168
0.3948 	1.49489e-168
0.3955 	6.83366e-171
0.3962 	6.25394e-171
0.3969 	5.13592e-171
0.3976 	3.9765e-171
0.3983 	2.81707e-171
0.399 	1.65764e-171
0.3997 	4.98217e-172
0.4004 	1.29797e-174
0.4011 	1.18917e-174
0.4018 	9.94898e-175
0.4025 	7.7731e-175
0.4032 	5.59722e-175
0.4039 	3.42135e-175
0.4046 	1.24547e-175
0.4053 	2.10881e-178
0.406 	1.93414e-178
0.4067 	1.64718e-178
0.4074 	1.29784e-178
0.4081 	9.48501e-179
0.4088 	5.99161e-179
0.4095 	2.49821e-179
0.4102 	2.97661e-182
0.4109 	2.73294e-182
0.4116 	2.36743e-182
0.4123 	1.88009e-182
0.413 	1.39276e-182
0.4137 	9.05416e-183
0.4144 	4.18077e-183
0.4151 	3.70429e-186
0.4158 	3.40455e-186
0.4165 	2.99776e-186
0.4172 	2.39829e-186
0.4179 	1.79881e-186
0.4186 	1.19934e-186
0.4193 	5.99862e-187
0.42 	4.08764e-190
0.4207 	3.76064e-190
0.4214 	3.36359e-190
0.4221 	2.70963e-190
0.4228 	2.05567e-190
0.4235 	1.40171e-190
0.4242 	7.47757e-191
0.4249 	9.37982e-192
0.4256 	3.71953e-194
0.4263 	3.37727e-194
0.427 	2.73839e-194
0.4277 	2.09951e-194
0.4284 	1.46063e-194
0.4291 	8.21749e-195
0.4298 	1.82869e-195
0.4305 	3.35033e-198
0.4312 	3.06608e-198
0.4319 	2.51789e-198
0.4326 	1.94939e-198
0.4333 	1.3809e-198
0.434 	8.12405e-199
0.4347 	2.43911e-199
0.4354 	2.77553e-202
0.4361 	2.54286e-202
0.4368 	2.1274e-202
0.4375 	1.66207e-202
0.4382 	1.19675e-202
0.4389 	7.31425e-203
0.4396 	2.66102e-203
0.4403 	2.1249e-206
0.441 	1.94888e-206
0.4417 	1.65971e-206
0.4424 	1.30768e-206
0.4431 	9.55653e-207
0.4438 	6.03623e-207
0.4445 	2.51593e-207
0.4452 	1.51913e-210
0.4459 	1.39476e-210
0.4466 	1.20821e-210
0.4473 	9.59482e-211
0.448 	7.10752e-211
0.4487 	4.62022e-211
0.4494 	2.13292e-211
0.4501 	1.03281e-214
0.4508 	9.49237e-215
0.4515 	8.35813e-215
0.4522 	6.68663e-215
0.4529 	5.01512e-215
0.4536 	3.34362e-215
0.4543 	1.67211e-215
0.455 	6.67843e-219
0.4557 	6.14415e-219
0.4564 	5.49543e-219
0.4571 	4.42694e-219
0.4578 	3.35846e-219
0.4585 	2.28997e-219
0.4592 	1.22149e-219
0.4599 	1.53006e-220
0.4606 	3.78361e-223
0.4613 	3.43545e-223
0.462 	2.78554e-223
0.4627 	2.13563e-223
0.4634 	1.48572e-223
0.4641 	8.35809e-224
0.4648 	1.859e-224
0.4655 	2.22952e-227
0.4662 	2.04035e-227
0.4669 	1.67554e-227
0.4676 	1.29722e-227
0.4683 	9.189e-228
0.469 	5.40578e-228
0.4697 	1.62256e-228
0.4704 	1.26006e-231
0.4711 	1.15443e-231
0.4718 	9.65805e-232
0.4725 	7.54549e-232
0.4732 	5.43292e-232
0.4739 	3.32036e-232
0.4746 	1.2078e-232
0.4753 	6.78606e-236
0.476 	6.22392e-236
0.4767 	5.30042e-236
0.4774 	4.17615e-236
0.4781 	3.05189e-236
0.4788 	1.92762e-236
0.4795 	8.03357e-237
0.4802 	3.46381e-240
0.4809 	3.18024e-240
0.4816 	2.75488e-240
0.4823 	2.18773e-240
0.483 	1.62058e-240
0.4837 	1.05343e-240
0.4844 	4.86277e-241
0.4851 	1.68324e-244
0.4858 	1.54703e-244
0.4865 	1.36217e-244
0.4872 	1.08975e-244
0.4879 	8.17329e-245
0.4886 	5.44909e-245
0.4893 	2.72488e-245
0.49 	7.77689e-249
0.4907 	7.15472e-249
0.4914 	6.39928e-249
0.4921 	5.15503e-249
0.4928 	3.91078e-249
0.4935 	2.66653e-249
0.4942 	1.42229e-249
0.4949 	1.78037e-250
0.4956 	3.12812e-253
0.4963 	2.84026e-253
0.497 	2.30294e-253
0.4977 	1.76561e-253
0.4984 	1.22829e-253
0.4991 	6.90962e-254
0.4998 	1.53637e-254
0.5005 	1.29004e-257
0.5012 	1.18059e-257
0.5019 	9.69498e-258
0.5026 	7.50589e-258
0.5033 	5.3168e-258
0.504 	3.12771e-258
0.5047 	9.38623e-259
0.5054 	5.04919e-262
0.5061 	4.62592e-262
0.5068 	3.87008e-262
0.5075 	3.02353e-262
0.5082 	2.17699e-262
0.5089 	1.33044e-262
0.5096 	4.839e-263
0.5103 	1.87841e-266
0.511 	1.72281e-266
0.5117 	1.46717e-266
0.5124 	1.15597e-266
0.5131 	8.4476e-267
0.5138 	5.33553e-267
0.5145 	2.22346e-267
0.5152 	6.62653e-271
0.5159 	6.08402e-271
0.5166 	5.27026e-271
0.5173 	4.18524e-271
0.518 	3.10023e-271
0.5187 	2.01521e-271
0.5194 	9.30194e-272
0.5201 	2.21147e-275
0.5208 	2.03251e-275
0.5215 	1.78964e-275
0.5222 	1.43172e-275
0.5229 	1.07381e-275
0.5236 	7.15889e-276
0.5243 	3.57973e-276
0.525 	6.99629e-280
0.5257 	6.43656e-280
0.5264 	5.75694e-280
0.5271 	4.63757e-280
0.5278 	3.51819e-280
0.5285 	2.39882e-280
0.5292 	1.27945e-280
0.5299 	1.60074e-281
0.5306 	1.94848e-284
0.5313 	1.76917e-284
0.532 	1.43447e-284
0.5327 	1.09977e-284
0.5334 	7.65074e-285
0.5341 	4.30374e-285
0.5348 	9.56746e-286
0.5355 	5.63704e-289
0.5362 	5.15876e-289
0.5369 	4.23635e-289
0.5376 	3.27979e-289
0.5383 	2.32322e-289
0.539 	1.36665e-289
0.5397 	4.10082e-290
0.5404 	1.55304e-293
0.5411 	1.42285e-293
0.5418 	1.19036e-293
0.5425 	9.29977e-294
0.5432 	6.69592e-294
0.5439 	4.09208e-294
0.5446 	1.48823e-294
0.5453 	4.07389e-298
0.546 	3.73642e-298
0.5467 	3.18199e-298
0.5474 	2.50704e-298
0.5481 	1.83209e-298
0.5488 	1.15714e-298
0.5495 	4.82185e-299
0.5502 	1.01867e-302
0.5509 	9.35272e-303
0.5516 	8.10174e-303
0.5523 	6.43377e-303
0.553 	4.7658e-303
0.5537 	3.09784e-303
0.5544 	1.42987e-303
0.5551 	2.45026e-307
0.5558 	2.25198e-307
0.5565 	1.98288e-307
0.5572 	1.58631e-307
0.5579 	1.18974e-307
0.5586 	7.93175e-308
0.5593 	3.96608e-308
0.56 	5.66084e-312
0.5607 	5.20795e-312
0.5614 	4.65805e-312
0.5621 	3.75234e-312
0.5628 	2.84662e-312
0.5635 	1.9409e-312
0.5642 	1.03519e-312
0.5649 	1.29473e-313
0.5656 	1.1425e-316
0.5663 	1.03736e-316
0.567 	8.41101e-317
0.5677 	6.44842e-317
0.5684 	4.48584e-317
0.5691 	2.52325e-317
0.5698 	5.60658e-318
0.5705 	0
0.5712 	0
0.5719 	0
0.5726 	0
0.5733 	0
0.574 	0
0.5747 	0
0.5754 	0
0.5761 	0
0.5768 	0
0.5775 	0
0.5782 	0
0.5789 	0
0.5796 	0
0.5803 	0
0.581 	0
0.5817 	0
0.5824 	0
0.5831 	0
0.5838 	0
0.5845 	0
0.5852 	0
0.5859 	0
0.5866 	0
0.5873 	0
0.588 	0
0.5887 	0
0.5894 	0
0.5901 	0
0.5908 	0
0.5915 	0
0.5922 	0
0.5929 	0
0.5936 	0
0.5943 	0
0.595 	0
0.5957 	0
0.5964 	0
0.5971 	0
0.5978 	0
0.5985 	0
0.5992 	0
0.5999 	0
0.6006 	0
0.6013 	0
0.602 	0
0.6027 	0
0.6034 	0
0.6041 	0
0.6048 	0
0.6055 	0
0.6062 	0
0.6069 	0
0.6076 	0
0.6083 	0
0.609 	0
0.6097 	0
0.6104 	0
0.6111 	0
0.6118 	0
0.6125 	0
0.6132 	0
0.6139 	0
0.6146 	0
0.6153 	0
0.616 	0
0.6167 	0
0.6174 	0
0.6181 	0
0.6188 	0
0.6195 	0
0.6202 	0
0.6209 	0
0.6216 	0
0.6223 	0
0.623 	0
0.6237 	0
0.6244 	0
0.6251 	0
0.6258 	0
0.6265 	0
0.6272 	0
0.6279 	0
0.6286 	0
0.6293 	0
0.63 	0
0.6307 	0
0.6314 	0
0.6321 	0
0.6328 	0
0.6335 	0
0.6342 	0
0.6349 	0
0.6356 	0
0.6363 	0
0.637 	0
0.6377 	0
0.6384 	0
0.6391 	0
0.6398 	0
0.6405 	0
0.6412 	0
0.6419 	0
0.6426 	0
0.6433 	0
0.644 	0
0.6447 	0
0.6454 	0
0.6461 	0
0.6468 	0
0.6475 	0
0.6482 	0
0.6489 	0
0.6496 	0
0.6503 	0
0.651 	0
0.6517 	0
0.6524 	0
0.6531 	0
0.6538 	0
0.6545 	0
0.6552 	0
0.6559 	0
0.6566 	0
0.6573 	0
0.658 	0
0.6587 	0
0.6594 	0
0.6601 	0
0.6608 	0
0.6615 	0
0.6622 	0
0.6629 	0
0.6636 	0
0.6643 	0
0.665 	0
0.6657 	0
0.6664 	0
0.6671 	0
0.6678 	0
0.6685 	0
0.6692 	0
0.6699 	0
0.6706 	0
0.6713 	0
0.672 	0
0.6727 	0
0.6734 	0
0.6741 	0
0.6748 	0
0.6755 	0
0.6762 	0
0.6769 	0
0.6776 	0
0.6783 	0
0.679 	0
0.6797 	0
0.6804 	0
0.6811 	0
0.6818 	0
0.6825 	0
0.6832 	0
0.6839 	0
0.6846 	0
0.6853 	0
0.686 	0
0.6867 	0
0.6874 	0
0.6881 	0
0.6888 	0
0.6895 	0
0.6902 	0
0.6909 	0
0.6916 	0
0.6923 	0
0.693 	0
0.6937 	0
0.6944 	0
0.6951 	0
0.6958 	0
0.6965 	0
0.6972 	0
0.6979 	0
0.6986 	0
0.6993 	0
0.7 	0
