0 	1
0.0007 	1
0.0014 	1
0.0021 	1
0.0028 	1
0.0035 	1
0.0042 	1
0.0049 	1
0.0056 	1
0.0063 	1
0.007 	1
0.0077 	1
0.0084 	1
0.0091 	1
0.0098 	1
0.0105 	1
0.0112 	1
0.0119 	1
0.0126 	1
0.0133 	1
0.014 	1
0.0147 	1
0.0154 	1
0.0161 	1
0.0168 	1
0.0175 	1
0.0182 	1
0.0189 	1
0.0196 	1
0.0203 	1
0.021 	1
0.0217 	1
0.0224 	1
0.0231 	1
0.0238 	1
0.0245 	1
0.0252 	1
0.0259 	1
0.0266 	1
0.0273 	1
0.028 	1
0.0287 	1
0.0294 	1
0.0301 	1
0.0308 	1
0.0315 	1
0.0322 	1
0.0329 	1
0.0336 	1
0.0343 	1
0.035 	1
0.0357 	1
0.0364 	1
0.0371 	1
0.0378 	1
0.0385 	1
0.0392 	1
0.0399 	1
0.0406 	1
0.0413 	1
0.042 	1
0.0427 	1
0.0434 	1
0.0441 	1
0.0448 	1
0.0455 	1
0.0462 	1
0.0469 	1
0.0476 	1
0.0483 	1
0.049 	1
0.0497 	1
0.0504 	1
0.0511 	1
0.0518 	1
0.0525 	1
0.0532 	1
0.0539 	1
0.0546 	1
0.0553 	1
0.056 	1
0.0567 	1
0.0574 	1
0.0581 	1
0.0588 	1
0.0595 	1
0.0602 	1
0.0609 	1
0.0616 	1
0.0623 	1
0.063 	1
0.0637 	1
0.0644 	1
0.0651 	1
0.0658 	1
0.0665 	1
0.0672 	1
0.0679 	1
0.0686 	1
0.0693 	1
0.07 	1
0.0707 	1
0.0714 	1
0.0721 	1
0.0728 	1
0.0735 	1
0.0742 	1
0.0749 	1
0.0756 	1
0.0763 	1
0.077 	1
0.0777 	1
0.0784 	1
0.0791 	1
0.0798 	1
0.0805 	1
0.0812 	1
0.0819 	1
0.0826 	1
0.0833 	1
0.084 	1
0.0847 	1
0.0854 	1
0.0861 	1
0.0868 	1
0.0875 	1
0.0882 	1
0.0889 	1
0.0896 	1
0.0903 	1
0.091 	1
0.0917 	1
0.0924 	1
0.0931 	1
0.0938 	1
0.0945 	1
0.0952 	1
0.0959 	1
0.0966 	1
0.0973 	1
0.098 	1
0.0987 	1
0.0994 	1
0.1001 	1
0.1008 	1
0.1015 	1
0.1022 	1
0.1029 	1
0.1036 	1
0.1043 	1
0.105 	1
0.1057 	1
0.1064 	1
0.1071 	1
0.1078 	1
0.1085 	1
0.1092 	1
0.1099 	1
0.1106 	1
0.1113 	1
0.112 	1
0.1127 	1
0.1134 	1
0.1141 	1
0.1148 	1
0.1155 	1
0.1162 	1
0.1169 	1
0.1176 	1
0.1183 	1
0.119 	1
0.1197 	1
0.1204 	1
0.1211 	1
0.1218 	1
0.1225 	1
0.1232 	1
0.1239 	1
0.1246 	1
0.1253 	1
0.126 	1
0.1267 	1
0.1274 	1
0.1281 	1
0.1288 	1
0.1295 	1
0.1302 	1
0.1309 	1
0.1316 	1
0.1323 	1
0.133 	1
0.1337 	1
0.1344 	1
0.1351 	1
0.1358 	1
0.1365 	1
0.1372 	1
0.1379 	1
0.1386 	1
0.1393 	1
0.14 	1
0.1407 	1
0.1414 	1
0.1421 	1
0.1428 	1
0.1435 	1
0.1442 	1
0.1449 	1
0.1456 	1
0.1463 	1
0.147 	1
0.1477 	1
0.1484 	1
0.1491 	1
0.1498 	1
0.1505 	1
0.1512 	1
0.1519 	1
0.1526 	1
0.1533 	1
0.154 	1
0.1547 	1
0.1554 	1
0.1561 	1
0.1568 	1
0.1575 	1
0.1582 	1
0.1589 	1
0.1596 	1
0.1603 	1
0.161 	1
0.1617 	1
0.1624 	1
0.1631 	1
0.1638 	1
0.1645 	1
0.1652 	1
0.1659 	1
0.1666 	1
0.1673 	1
0.168 	1
0.1687 	1
0.1694 	1
0.1701 	1
0.1708 	1
0.1715 	1
0.1722 	1
0.1729 	1
0.1736 	1
0.1743 	1
0.175 	1
0.1757 	1
0.1764 	1
0.1771 	1
0.1778 	1
0.1785 	1
0.1792 	1
0.1799 	1
0.1806 	1
0.1813 	1
0.182 	1
0.1827 	1
0.1834 	1
0.1841 	1
0.1848 	1
0.1855 	1
0.1862 	1
0.1869 	1
0.1876 	1
0.1883 	1
0.189 	1
0.1897 	1
0.1904 	1
0.1911 	1
0.1918 	1
0.1925 	1
0.1932 	1
0.1939 	1
0.1946 	1
0.1953 	1
0.196 	1
0.1967 	1
0.1974 	1
0.1981 	1
0.1988 	1
0.1995 	1
0.2002 	1
0.2009 	1
0.2016 	1
0.2023 	1
0.203 	1
0.2037 	1
0.2044 	1
0.2051 	1
0.2058 	1
0.2065 	1
0.2072 	1
0.2079 	1
0.2086 	1
0.2093 	1
0.21 	1
0.2107 	1
0.2114 	1
0.2121 	1
0.2128 	1
0.2135 	1
0.2142 	1
0.2149 	1
0.2156 	1
0.2163 	1
0.217 	1
0.2177 	1
0.2184 	1
0.2191 	1
0.2198 	1
0.2205 	1
0.2212 	1
0.2219 	1
0.2226 	1
0.2233 	1
0.224 	1
0.2247 	1
0.2254 	1
0.2261 	1
0.2268 	1
0.2275 	1
0.2282 	1
0.2289 	1
0.2296 	1
0.2303 	1
0.231 	1
0.2317 	1
0.2324 	0.999999
0.2331 	0.999999
0.2338 	0.999999
0.2345 	0.999998
0.2352 	0.999998
0.2359 	0.999998
0.2366 	0.999996
0.2373 	0.999993
0.238 	0.999989
0.2387 	0.999987
0.2394 	0.999983
0.2401 	0.999979
0.2408 	0.999978
0.2415 	0.99996
0.2422 	0.999915
0.2429 	0.99987
0.2436 	0.999841
0.2443 	0.999794
0.245 	0.999737
0.2457 	0.999718
0.2464 	0.999508
0.2471 	0.998599
0.2478 	0.997691
0.2485 	0.997048
0.2492 	0.996264
0.2499 	0.995163
0.2506 	0.994868
0.2513 	0.993509
0.252 	0.97656
0.2527 	0.959611
0.2534 	0.945472
0.2541 	0.931901
0.2548 	0.909941
0.2555 	0.896385
0.2562 	0.886191
0.2569 	0.834065
0.2576 	0.778714
0.2583 	0.724868
0.259 	0.668975
0.2597 	0.584058
0.2604 	0.500916
0.2611 	0.419107
0.2618 	0.360617
0.2625 	0.308487
0.2632 	0.256357
0.2639 	0.201996
0.2646 	0.170537
0.2653 	0.134377
0.266 	0.0919496
0.2667 	0.0679756
0.2674 	0.054253
0.2681 	0.0405305
0.2688 	0.0157061
0.2695 	0.014487
0.2702 	0.01231
0.2709 	0.00773813
0.2716 	0.00501619
0.2723 	0.00414411
0.273 	0.00327203
0.2737 	0.000523445
0.2744 	0.000285185
0.2751 	0.000291477
0.2758 	0.000179634
0.2765 	0.000103591
0.2772 	9.19853e-05
0.2779 	8.03795e-05
0.2786 	2.21595e-05
0.2793 	9.81855e-07
0.28 	1.28017e-06
0.2807 	7.93867e-07
0.2814 	4.06591e-07
0.2821 	3.82404e-07
0.2828 	3.58218e-07
0.2835 	1.65254e-07
0.2842 	4.71929e-10
0.2849 	7.14431e-10
0.2856 	5.01265e-10
0.2863 	2.32411e-10
0.287 	2.26853e-10
0.2877 	2.21295e-10
0.2884 	1.48192e-10
0.2891 	7.01036e-12
0.2898 	7.59672e-12
0.2905 	8.10853e-12
0.2912 	8.5905e-12
0.2919 	8.80841e-12
0.2926 	9.006e-12
0.2933 	9.21648e-12
0.294 	9.43989e-12
0.2947 	9.48084e-12
0.2954 	9.58845e-12
0.2961 	9.74607e-12
0.2968 	9.56006e-12
0.2975 	9.28035e-12
0.2982 	9.00064e-12
0.2989 	8.90799e-12
0.2996 	8.4834e-12
0.3003 	8.13012e-12
0.301 	7.87193e-12
0.3017 	7.42391e-12
0.3024 	6.87043e-12
0.3031 	6.31696e-12
0.3038 	5.86833e-12
0.3045 	5.17302e-12
0.3052 	4.49568e-12
0.3059 	3.86326e-12
0.3066 	3.34125e-12
0.3073 	2.92965e-12
0.308 	2.51806e-12
0.3087 	2.03894e-12
0.3094 	1.73195e-12
0.3101 	1.42726e-12
0.3108 	1.04189e-12
0.3115 	7.49741e-13
0.3122 	6.25395e-13
0.3129 	5.01048e-13
0.3136 	2.96173e-13
0.3143 	2.25726e-13
0.315 	2.11205e-13
0.3157 	1.40014e-13
0.3164 	8.14734e-14
0.3171 	6.93123e-14
0.3178 	5.71511e-14
0.3185 	2.73446e-14
0.3192 	7.96645e-15
0.3199 	9.67398e-15
0.3206 	6.74887e-15
0.3213 	3.29746e-15
0.322 	3.04107e-15
0.3227 	2.78468e-15
0.3234 	1.74461e-15
0.3241 	5.55228e-17
0.3248 	8.72134e-17
0.3255 	6.9561e-17
0.3262 	3.21713e-17
0.3269 	2.8838e-17
0.3276 	2.81241e-17
0.3283 	2.35881e-17
0.329 	5.10724e-20
0.3297 	9.38007e-20
0.3304 	8.69253e-20
0.3311 	4.28471e-20
0.3318 	3.32722e-20
0.3325 	3.31067e-20
0.3332 	3.29412e-20
0.3339 	3.88082e-24
0.3346 	7.75141e-24
0.3353 	8.28193e-24
0.336 	4.35902e-24
0.3367 	2.954e-24
0.3374 	2.94777e-24
0.3381 	2.94153e-24
0.3388 	1.20265e-28
0.3395 	2.59844e-28
0.3402 	3.19109e-28
0.3409 	1.77589e-28
0.3416 	1.06714e-28
0.3423 	1.06483e-28
0.343 	1.06251e-28
0.3437 	1.00973e-29
0.3444 	8.78501e-33
0.3451 	1.24262e-32
0.3458 	7.24517e-33
0.3465 	3.91156e-33
0.3472 	3.90328e-33
0.3479 	3.895e-33
0.3486 	1.10863e-33
0.3493 	3.01416e-37
0.35 	4.92875e-37
0.3507 	2.98966e-37
0.3514 	1.46549e-37
0.3521 	1.46258e-37
0.3528 	1.45967e-37
0.3535 	6.91542e-38
0.3542 	1.02651e-41
0.3549 	1.74423e-41
0.3556 	1.22414e-41
0.3563 	5.49563e-42
0.357 	5.48536e-42
0.3577 	5.47508e-42
0.3584 	3.627e-42
0.3591 	3.38765e-46
0.3598 	6.01902e-46
0.3605 	4.86907e-46
0.3612 	2.20659e-46
0.3619 	2.01302e-46
0.3626 	2.00933e-46
0.3633 	1.70927e-46
0.364 	1.07256e-50
0.3647 	2.00831e-50
0.3654 	1.86814e-50
0.3661 	9.21035e-51
0.3668 	7.17032e-51
0.3675 	7.15684e-51
0.3682 	7.14336e-51
0.3689 	3.26499e-55
0.3696 	6.50687e-55
0.3703 	6.95164e-55
0.371 	3.66694e-55
0.3717 	2.49057e-55
0.3724 	2.48544e-55
0.3731 	2.48031e-55
0.3738 	9.64572e-60
0.3745 	2.06989e-59
0.3752 	2.53857e-59
0.3759 	1.41566e-59
0.3766 	8.53141e-60
0.3773 	8.50997e-60
0.378 	8.48852e-60
0.3787 	8.00954e-61
0.3794 	6.5681e-64
0.3801 	9.23594e-64
0.3808 	5.39749e-64
0.3815 	2.9261e-64
0.3822 	2.91532e-64
0.3829 	2.90455e-64
0.3836 	8.20326e-65
0.3843 	2.13424e-68
0.385 	3.41986e-68
0.3857 	2.08106e-68
0.3864 	1.0277e-68
0.3871 	1.02091e-68
0.3878 	1.01411e-68
0.3885 	4.7573e-69
0.3892 	7.47733e-73
0.3899 	1.20302e-72
0.3906 	8.44417e-73
0.3913 	3.85118e-73
0.392 	3.80082e-73
0.3927 	3.75046e-73
0.3934 	2.4459e-73
0.3941 	3.07079e-77
0.3948 	4.82462e-77
0.3955 	3.85407e-77
0.3962 	1.79377e-77
0.3969 	1.60977e-77
0.3976 	1.57007e-77
0.3983 	1.29868e-77
0.399 	1.57336e-81
0.3997 	2.37262e-81
0.4004 	2.12018e-81
0.4011 	1.07895e-81
0.4018 	8.31258e-82
0.4025 	7.9997e-82
0.4032 	7.68682e-82
0.4039 	9.68815e-86
0.4046 	1.42565e-85
0.4053 	1.41113e-85
0.406 	7.68142e-86
0.4067 	5.23082e-86
0.4074 	4.99082e-86
0.4081 	4.75081e-86
0.4088 	6.49692e-90
0.4095 	9.6339e-90
0.4102 	1.05836e-89
0.4109 	6.06501e-90
0.4116 	3.71698e-90
0.4123 	3.53941e-90
0.413 	3.36184e-90
0.4137 	3.10371e-91
0.4144 	6.74295e-94
0.4151 	8.27811e-94
0.4158 	4.94429e-94
0.4165 	2.75596e-94
0.4172 	2.62945e-94
0.4179 	2.50293e-94
0.4186 	6.87199e-95
0.4193 	4.66805e-98
0.42 	6.44815e-98
0.4207 	3.98825e-98
0.4214 	2.03688e-98
0.4221 	1.94998e-98
0.4228 	1.86308e-98
0.4235 	8.47242e-99
0.4242 	3.13385e-102
0.4249 	4.45796e-102
0.4256 	3.1246e-102
0.4263 	1.4711e-102
0.427 	1.41343e-102
0.4277 	1.35576e-102
0.4284 	8.58994e-103
0.4291 	2.02563e-106
0.4298 	2.97983e-106
0.4305 	2.36285e-106
0.4312 	1.1174e-106
0.4319 	9.94019e-107
0.4326 	9.56943e-107
0.4333 	7.76531e-107
0.434 	1.25793e-110
0.4347 	1.92221e-110
0.4354 	1.72322e-110
0.4361 	8.76784e-111
0.4368 	6.77224e-111
0.4375 	6.54075e-111
0.4382 	6.30927e-111
0.4389 	7.50233e-115
0.4396 	1.19725e-114
0.4403 	1.21358e-114
0.441 	6.55647e-115
0.4417 	4.47343e-115
0.4424 	4.33268e-115
0.4431 	4.19194e-115
0.4438 	4.29675e-119
0.4445 	7.21009e-119
0.4452 	8.27033e-119
0.4459 	4.69783e-119
0.4466 	2.86985e-119
0.4473 	2.78631e-119
0.448 	2.70276e-119
0.4487 	2.49401e-120
0.4494 	4.205e-123
0.4501 	5.46676e-123
0.4508 	3.24031e-123
0.4515 	1.79172e-123
0.4522 	1.74319e-123
0.4529 	1.69466e-123
0.4536 	4.6669e-124
0.4543 	2.37881e-127
0.455 	3.51346e-127
0.4557 	2.16016e-127
0.4564 	1.09094e-127
0.4571 	1.06328e-127
0.4578 	1.03563e-127
0.4585 	4.73375e-128
0.4592 	1.29002e-131
0.4599 	1.94453e-131
0.4606 	1.37192e-131
0.4613 	6.49196e-132
0.462 	6.33704e-132
0.4627 	6.18212e-132
0.4634 	3.94145e-132
0.4641 	-1.75447e-133
0.4648 	-5.27151e-133
0.4655 	-3.76467e-133
0.4662 	-2.4829e-134
0.4669 	2.67562e-136
0.4676 	2.49087e-136
0.4683 	1.74316e-136
0.469 	-3.97667e-134
0.4697 	-1.50779e-133
0.4704 	-1.34921e-133
0.4711 	-2.39096e-134
0.4718 	-9.8851e-137
0.4725 	-6.88369e-137
0.4732 	-3.88228e-137
0.4739 	-6.3355e-135
0.4746 	-3.57235e-134
0.4753 	-3.99215e-134
0.476 	-1.05329e-134
0.4767 	-3.09622e-137
0.4774 	-2.12362e-137
0.4781 	-1.15102e-137
0.4788 	-5.30599e-136
0.4795 	-7.82166e-135
0.4802 	-1.09463e-134
0.4809 	-3.65506e-135
0.4816 	-8.22073e-138
0.4823 	-5.69145e-138
0.483 	-3.16217e-138
0.4837 	-2.38124e-138
0.4844 	-1.61332e-135
0.4851 	-2.85251e-135
0.4858 	-1.11757e-135
0.4865 	-2.05099e-138
0.4872 	-1.43838e-138
0.4879 	-8.25772e-139
0.4886 	-5.50507e-139
0.4893 	-3.13441e-136
0.49 	-7.11673e-136
0.4907 	-3.13427e-136
0.4914 	-4.91585e-139
0.4921 	-3.49263e-139
0.4928 	-2.06941e-139
0.4935 	-1.23049e-139
0.4942 	-5.69109e-137
0.4949 	-1.45251e-136
0.4956 	-8.2148e-137
0.4963 	-1.13825e-139
0.497 	-8.18841e-140
0.4977 	-4.9943e-140
0.4984 	-2.66454e-140
0.4991 	-9.5029e-138
0.4998 	-2.84564e-137
0.5005 	-2.0333e-137
0.5012 	-1.37871e-138
0.5019 	-1.8565e-140
0.5026 	-1.16262e-140
0.5033 	-5.59496e-141
0.504 	-1.41114e-138
0.5047 	-5.34701e-138
0.5054 	-4.78465e-138
0.5061 	-8.4862e-139
0.5068 	-4.07378e-141
0.5075 	-2.61342e-141
0.5082 	-1.15305e-141
0.5089 	-1.70751e-139
0.5096 	-9.62408e-139
0.5103 	-1.07549e-138
0.511 	-2.83797e-139
0.5117 	-8.65803e-142
0.5124 	-5.67822e-142
0.5131 	-2.69842e-142
0.5138 	-1.12449e-140
0.5145 	-1.65612e-139
0.5152 	-2.31768e-139
0.5159 	-7.73935e-140
0.5166 	-1.78359e-142
0.5173 	-1.19366e-142
0.518 	-6.03744e-143
0.5187 	-4.23004e-143
0.5194 	-2.71646e-140
0.5201 	-4.80281e-140
0.5208 	-1.88176e-140
0.5215 	-3.56433e-143
0.5222 	-2.43029e-143
0.5229 	-1.29625e-143
0.5236 	-7.90265e-144
0.5243 	-4.22623e-141
0.525 	-9.59516e-141
0.5257 	-4.22597e-141
0.5264 	-6.91571e-144
0.5271 	-4.79706e-144
0.5278 	-2.67841e-144
0.5285 	-1.43721e-144
0.5292 	-6.18364e-142
0.5299 	-1.57807e-141
0.5306 	-8.92524e-142
0.5313 	-1.30383e-144
0.532 	-9.1885e-145
0.5327 	-5.33875e-145
0.5334 	-2.54618e-145
0.5341 	-8.37518e-143
0.5348 	-2.50758e-142
0.5355 	-1.79178e-142
0.5362 	-1.21623e-143
0.5369 	-1.70937e-145
0.5376 	-1.02849e-145
0.5383 	-4.39684e-146
0.539 	-1.0157e-143
0.5397 	-3.8477e-143
0.5404 	-3.44304e-143
0.5411 	-6.10877e-144
0.5418 	-3.09072e-146
0.5425 	-1.91794e-146
0.5432 	-7.45168e-147
0.5439 	-1.01076e-144
0.5446 	-5.69429e-144
0.5453 	-6.36325e-144
0.546 	-1.67944e-144
0.5467 	-5.43471e-147
0.5474 	-3.46642e-147
0.5481 	-1.49813e-147
0.5488 	-5.5158e-146
0.5495 	-8.11029e-145
0.5502 	-1.13496e-144
0.5509 	-3.79043e-145
0.5516 	-9.29817e-148
0.5523 	-6.07826e-148
0.553 	-2.85835e-148
0.5537 	-1.87848e-148
0.5544 	-1.1078e-145
0.5551 	-1.95851e-145
0.5558 	-7.67422e-146
0.5565 	-1.54848e-148
0.5572 	-1.0349e-148
0.5579 	-5.21318e-149
0.5586 	-2.9344e-149
0.5593 	-1.44296e-146
0.56 	-3.27578e-146
0.5607 	-1.44284e-146
0.5614 	-2.51115e-149
0.5621 	-1.71223e-149
0.5628 	-9.13303e-150
0.5635 	-4.47585e-150
0.5642 	-1.77561e-147
0.5649 	-4.53086e-147
0.5656 	-2.56266e-147
0.5663 	-3.96716e-150
0.567 	-2.7547e-150
0.5677 	-1.54224e-150
0.5684 	-6.66861e-151
0.5691 	-2.02998e-148
0.5698 	-6.077e-148
0.5705 	-4.34235e-148
0.5712 	-2.95036e-149
0.5719 	-4.31254e-151
0.5726 	-2.5168e-151
0.5733 	-9.709e-152
0.574 	-2.08419e-149
0.5747 	-7.89376e-149
0.5754 	-7.06357e-149
0.5761 	-1.25356e-149
0.5768 	-6.57408e-152
0.5775 	-3.97743e-152
0.5782 	-1.3819e-152
0.5789 	-1.76024e-150
0.5796 	-9.91312e-150
0.5803 	-1.10775e-149
0.581 	-2.92402e-150
0.5817 	-9.76525e-153
0.5824 	-6.09767e-153
0.5831 	-2.43009e-153
0.5838 	-8.17417e-152
0.5845 	-1.20064e-150
0.5852 	-1.68014e-150
0.5859 	-5.6115e-151
0.5866 	-1.41442e-153
0.5873 	-9.08169e-154
0.588 	-4.01921e-154
0.5887 	-2.48478e-154
0.5894 	-1.39744e-151
0.5901 	-2.47049e-151
0.5908 	-9.68069e-152
0.5915 	-1.99899e-154
0.5922 	-1.31571e-154
0.5929 	-6.32427e-155
0.5936 	-3.30574e-155
0.5943 	-1.55444e-152
0.595 	-3.52869e-152
0.5957 	-1.55427e-152
0.5964 	-2.75837e-155
0.5971 	-1.85612e-155
0.5978 	-9.53871e-156
0.5985 	-4.30392e-156
0.5992 	-1.63748e-153
0.5999 	-4.17817e-153
0.6006 	-2.3632e-153
0.6013 	-3.71826e-156
0.602 	-2.55201e-156
0.6027 	-1.38575e-156
0.6034 	-5.47893e-157
0.6041 	-1.60708e-154
0.6048 	-4.81067e-154
0.6055 	-3.43749e-154
0.6062 	-2.33611e-155
0.6069 	-3.42153e-157
0.6076 	-1.94505e-157
0.6083 	-6.80208e-158
0.609 	-1.42088e-155
0.6097 	-5.38109e-155
0.6104 	-4.81514e-155
0.6111 	-8.54568e-156
0.6118 	-4.47316e-158
0.6125 	-2.64158e-158
0.6132 	-8.18215e-159
0.6139 	-1.03697e-156
0.6146 	-5.83955e-156
0.6153 	-6.52545e-156
0.616 	-1.72244e-156
0.6167 	-5.69605e-159
0.6174 	-3.46924e-159
0.6181 	-1.24244e-159
0.6188 	-4.17531e-158
0.6195 	-6.13499e-157
0.6202 	-8.58519e-157
0.6209 	-2.86727e-157
0.6216 	-7.0402e-160
0.6223 	-4.38776e-160
0.623 	-1.73532e-160
0.6237 	-1.01987e-160
0.6244 	-6.21918e-158
0.6251 	-1.09953e-157
0.6258 	-4.30824e-158
0.6265 	-8.37249e-161
0.6272 	-5.28194e-161
0.6279 	-2.19139e-161
0.6286 	-9.96657e-162
0.6293 	-6.05058e-159
0.63 	-1.37382e-158
0.6307 	-6.05045e-159
0.6314 	-9.37557e-162
0.6321 	-5.86811e-162
0.6328 	-2.36065e-162
0.6335 	-6.31272e-163
0.6342 	-5.59752e-160
0.6349 	-1.42919e-159
0.6356 	-8.08222e-160
0.6363 	-9.31297e-163
0.637 	-5.47644e-163
0.6377 	-1.63991e-163
0.6384 	6.28813e-164
0.6391 	-4.84028e-161
0.6398 	-1.45185e-160
0.6405 	-1.03727e-160
0.6412 	-6.97211e-162
0.6419 	-2.545e-164
0.6426 	1.39412e-164
0.6433 	4.17371e-164
0.644 	-3.77118e-162
0.6447 	-1.43799e-161
0.6454 	-1.28688e-161
0.6461 	-2.26776e-162
0.6468 	6.55103e-165
0.6475 	1.00677e-164
0.6482 	1.3482e-164
0.6489 	-2.39118e-163
0.6496 	-1.38458e-162
0.6503 	-1.54905e-162
0.651 	-4.05501e-163
0.6517 	3.01903e-165
0.6524 	3.21054e-165
0.6531 	3.40205e-165
0.6538 	-7.00006e-165
0.6545 	-1.28835e-163
0.6552 	-1.8118e-163
0.6559 	-5.98005e-164
0.6566 	8.76479e-166
0.6573 	8.53403e-166
0.658 	8.30327e-166
0.6587 	4.51871e-166
0.6594 	-1.14329e-164
0.6601 	-2.05619e-164
0.6608 	-7.90745e-165
0.6615 	2.2303e-166
0.6622 	2.10701e-166
0.6629 	1.98372e-166
0.6636 	1.22978e-166
0.6643 	-9.351e-166
0.665 	-2.24879e-165
0.6657 	-9.58981e-166
0.6664 	5.36721e-167
0.6671 	5.01593e-167
0.6678 	4.66465e-167
0.6685 	3.22931e-167
0.6692 	-6.29034e-167
0.6699 	-1.95297e-166
0.6706 	-1.0533e-166
0.6713 	1.25614e-167
0.672 	1.17016e-167
0.6727 	1.08418e-167
0.6734 	8.29611e-168
0.6741 	-1.4401e-168
0.6748 	-1.43529e-167
0.6755 	-9.6731e-168
0.6762 	2.04375e-168
0.6769 	2.69651e-168
0.6776 	2.49832e-168
0.6783 	2.09836e-168
0.679 	7.02696e-169
0.6797 	-4.78239e-169
0.6804 	-4.60894e-169
0.6811 	4.55162e-169
0.6818 	6.16534e-169
0.6825 	5.72097e-169
0.6832 	5.24427e-169
0.6839 	2.3137e-169
0.6846 	1.40239e-169
0.6853 	1.0219e-169
0.686 	1.34916e-169
0.6867 	1.40285e-169
0.6874 	1.30456e-169
0.6881 	1.20627e-169
0.6888 	5.56582e-170
0.6895 	5.27659e-170
0.6902 	4.78561e-170
0.6909 	3.79028e-170
0.6916 	3.1846e-170
0.6923 	2.96854e-170
0.693 	2.75248e-170
0.6937 	1.3743e-170
0.6944 	1.35058e-170
0.6951 	1.3919e-170
0.6958 	9.95088e-171
0.6965 	7.26112e-171
0.6972 	6.87227e-171
0.6979 	6.48342e-171
0.6986 	4.35464e-171
0.6993 	4.58067e-171
0.7 	5.78899e-171
