0 	1
0.0007 	1
0.0014 	1
0.0021 	1
0.0028 	1
0.0035 	1
0.0042 	1
0.0049 	1
0.0056 	1
0.0063 	1
0.007 	1
0.0077 	1
0.0084 	1
0.0091 	1
0.0098 	1
0.0105 	1
0.0112 	1
0.0119 	1
0.0126 	1
0.0133 	1
0.014 	1
0.0147 	1
0.0154 	1
0.0161 	1
0.0168 	1
0.0175 	1
0.0182 	1
0.0189 	1
0.0196 	1
0.0203 	1
0.021 	1
0.0217 	1
0.0224 	1
0.0231 	1
0.0238 	1
0.0245 	1
0.0252 	1
0.0259 	1
0.0266 	1
0.0273 	1
0.028 	1
0.0287 	1
0.0294 	1
0.0301 	1
0.0308 	1
0.0315 	1
0.0322 	1
0.0329 	1
0.0336 	1
0.0343 	1
0.035 	1
0.0357 	1
0.0364 	1
0.0371 	1
0.0378 	1
0.0385 	1
0.0392 	1
0.0399 	1
0.0406 	1
0.0413 	1
0.042 	1
0.0427 	1
0.0434 	1
0.0441 	1
0.0448 	1
0.0455 	1
0.0462 	1
0.0469 	1
0.0476 	1
0.0483 	1
0.049 	1
0.0497 	1
0.0504 	1
0.0511 	1
0.0518 	1
0.0525 	1
0.0532 	1
0.0539 	1
0.0546 	1
0.0553 	1
0.056 	1
0.0567 	1
0.0574 	1
0.0581 	1
0.0588 	1
0.0595 	1
0.0602 	1
0.0609 	1
0.0616 	1
0.0623 	1
0.063 	1
0.0637 	1
0.0644 	1
0.0651 	1
0.0658 	1
0.0665 	1
0.0672 	1
0.0679 	1
0.0686 	1
0.0693 	1
0.07 	1
0.0707 	1
0.0714 	1
0.0721 	1
0.0728 	1
0.0735 	1
0.0742 	1
0.0749 	1
0.0756 	1
0.0763 	1
0.077 	1
0.0777 	1
0.0784 	1
0.0791 	1
0.0798 	1
0.0805 	1
0.0812 	1
0.0819 	1
0.0826 	1
0.0833 	1
0.084 	1
0.0847 	1
0.0854 	1
0.0861 	1
0.0868 	1
0.0875 	1
0.0882 	1
0.0889 	1
0.0896 	1
0.0903 	1
0.091 	1
0.0917 	1
0.0924 	1
0.0931 	1
0.0938 	1
0.0945 	1
0.0952 	1
0.0959 	1
0.0966 	1
0.0973 	1
0.098 	1
0.0987 	1
0.0994 	1
0.1001 	1
0.1008 	1
0.1015 	1
0.1022 	1
0.1029 	1
0.1036 	1
0.1043 	1
0.105 	1
0.1057 	1
0.1064 	1
0.1071 	1
0.1078 	1
0.1085 	1
0.1092 	1
0.1099 	1
0.1106 	1
0.1113 	1
0.112 	1
0.1127 	1
0.1134 	1
0.1141 	1
0.1148 	1
0.1155 	1
0.1162 	1
0.1169 	1
0.1176 	1
0.1183 	1
0.119 	1
0.1197 	1
0.1204 	1
0.1211 	1
0.1218 	1
0.1225 	1
0.1232 	1
0.1239 	1
0.1246 	1
0.1253 	1
0.126 	1
0.1267 	1
0.1274 	1
0.1281 	1
0.1288 	1
0.1295 	1
0.1302 	1
0.1309 	1
0.1316 	1
0.1323 	1
0.133 	1
0.1337 	1
0.1344 	1
0.1351 	1
0.1358 	1
0.1365 	1
0.1372 	1
0.1379 	1
0.1386 	1
0.1393 	1
0.14 	1
0.1407 	1
0.1414 	1
0.1421 	1
0.1428 	1
0.1435 	1
0.1442 	1
0.1449 	1
0.1456 	1
0.1463 	1
0.147 	0.999999
0.1477 	0.999999
0.1484 	0.999999
0.1491 	0.999999
0.1498 	0.999999
0.1505 	0.999999
0.1512 	0.999996
0.1519 	0.999994
0.1526 	0.999992
0.1533 	0.99999
0.154 	0.999988
0.1547 	0.999986
0.1554 	0.999986
0.1561 	0.99998
0.1568 	0.999974
0.1575 	0.999967
0.1582 	0.999961
0.1589 	0.999955
0.1596 	0.999949
0.1603 	0.999947
0.161 	0.99994
0.1617 	0.999931
0.1624 	0.999922
0.1631 	0.999913
0.1638 	0.999904
0.1645 	0.999896
0.1652 	0.999888
0.1659 	0.999893
0.1666 	0.999895
0.1673 	0.999896
0.168 	0.999898
0.1687 	0.9999
0.1694 	0.999902
0.1701 	0.999898
0.1708 	0.999902
0.1715 	0.999905
0.1722 	0.99991
0.1729 	0.999914
0.1736 	0.999918
0.1743 	0.999922
0.175 	0.999923
0.1757 	0.99991
0.1764 	0.999896
0.1771 	0.999882
0.1778 	0.999868
0.1785 	0.999853
0.1792 	0.999839
0.1799 	0.999825
0.1806 	0.999805
0.1813 	0.999802
0.182 	0.9998
0.1827 	0.999797
0.1834 	0.999794
0.1841 	0.999792
0.1848 	0.999789
0.1855 	0.999808
0.1862 	0.999824
0.1869 	0.999841
0.1876 	0.999858
0.1883 	0.999874
0.189 	0.999891
0.1897 	0.999907
0.1904 	0.999921
0.1911 	0.999933
0.1918 	0.999946
0.1925 	0.999959
0.1932 	0.999968
0.1939 	0.999977
0.1946 	0.999986
0.1953 	0.999991
0.196 	0.999994
0.1967 	0.999997
0.1974 	0.999999
0.1981 	1
0.1988 	1
0.1995 	1
0.2002 	1
0.2009 	0.999999
0.2023 	0.999998
0.2037 	1
0.2044 	1
0.2051 	1
0.2058 	1
0.2065 	1
0.2072 	1
0.2079 	1
0.2086 	1
0.2093 	1
0.21 	1
0.2107 	1
0.2114 	1
0.2121 	1
0.2128 	1
0.2135 	1
0.2142 	0.999993
0.2149 	0.999982
0.2156 	0.999545
0.2163 	0.998403
0.217 	0.989036
0.2177 	0.961221
0.2184 	0.887284
0.2191 	0.747057
0.2198 	0.540542
0.2205 	0.345361
0.2212 	0.154714
0.2219 	0.0896582
0.2226 	0.041174
0.2233 	0.0341568
0.224 	0.0286915
0.2247 	0.0260199
0.2254 	0.0219746
0.2261 	0.0168991
0.2268 	0.011744
0.2275 	0.00656711
0.2303 	0.00120685
0.2317 	0.0011831
0.2324 	0.00118296
0.2331 	0.0010656
0.2338 	0.000930232
0.2345 	0.000816586
0.2352 	0.000704319
0.2359 	0.0005955
0.2366 	0.000465121
0.2373 	0.000312976
0.238 	0.000238037
0.2415 	0.000162612
0.2422 	0.000138516
0.2471 	5.70779e-06
0.2478 	6.04347e-06
0.2485 	1.03363e-05
0.2492 	1.51513e-05
0.2499 	2.02513e-05
0.2506 	2.42808e-05
0.2513 	2.78862e-05
0.252 	2.83434e-05
0.2527 	2.70804e-05
0.2548 	1.1734e-05
0.2555 	1.07238e-05
0.2562 	1.11766e-05
0.2569 	1.45749e-05
0.2576 	1.91535e-05
0.2583 	2.94712e-05
0.259 	4.1333e-05
0.2597 	5.59524e-05
0.2604 	5.821e-05
0.2611 	5.11964e-05
0.2618 	3.93077e-05
0.2625 	2.61061e-05
0.2632 	2.79787e-05
0.2639 	3.0852e-05
0.2674 	6.37745e-05
0.2681 	6.30053e-05
0.2688 	6.16135e-05
0.2695 	6.06217e-05
0.2709 	5.4392e-05
0.2716 	4.98954e-05
0.2723 	4.52267e-05
0.273 	4.24165e-05
0.2737 	4.03496e-05
0.2835 	1.34266e-05
0.2842 	1.13231e-05
0.2849 	8.26485e-06
0.2856 	5.41612e-06
0.2863 	2.72989e-06
0.287 	1.69032e-06
0.2905 	4.24389e-06
0.2912 	5.30227e-06
0.2919 	5.89728e-06
0.2926 	6.25677e-06
0.2933 	5.41395e-06
0.294 	4.31426e-06
0.2947 	2.75332e-06
0.2954 	1.55937e-06
0.2961 	6.40666e-07
0.2968 	2.63519e-07
0.2975 	3.38122e-08
0.2982 	1.5229e-08
0.2989 	5.58722e-10
0.2996 	2.05297e-10
0.3003 	2.63086e-12
0.301 	9.75415e-13
0.3017 	3.05572e-13
0.3024 	1.82554e-13
0.3031 	1.14984e-13
0.3038 	5.89805e-14
0.3045 	3.33366e-14
0.3052 	1.29807e-14
0.3059 	5.84507e-15
0.3066 	1.7252e-15
0.3073 	6.21948e-16
0.308 	2.10153e-16
0.3087 	7.49402e-17
0.3115 	3.83453e-18
0.3122 	1.92285e-18
0.3129 	8.3906e-19
0.3136 	3.76203e-19
0.3143 	1.86485e-19
0.315 	7.1232e-20
0.3157 	4.1214e-20
0.3164 	1.59951e-20
0.3171 	8.3622e-21
0.3178 	3.23654e-21
0.3185 	1.45385e-21
0.3192 	5.7773e-22
0.3199 	2.05056e-22
0.3206 	9.18057e-23
0.3213 	2.58776e-23
0.322 	1.29864e-23
0.3227 	3.23531e-24
0.3234 	1.33449e-24
0.3241 	2.86392e-25
0.3248 	9.07816e-26
0.3255 	2.22409e-26
0.3262 	4.52826e-27
0.3269 	1.67747e-27
0.3276 	1.9671e-28
0.3283 	8.97618e-29
0.329 	1.89217e-29
0.3297 	1.30755e-29
0.3304 	9.12692e-30
0.3311 	6.60165e-30
0.3318 	4.99246e-30
0.3325 	3.635e-30
0.3332 	2.71406e-30
0.3339 	1.88837e-30
0.3346 	1.4144e-30
0.3353 	1.01338e-30
0.336 	7.09616e-31
0.3367 	4.73289e-31
0.3374 	2.74721e-31
0.3381 	1.60324e-31
0.3388 	6.54178e-32
0.3423 	3.74825e-33
0.343 	1.80582e-33
0.3437 	5.26823e-34
0.3444 	2.81658e-34
0.3451 	1.31812e-34
0.3465 	3.00723e-35
0.3472 	1.40716e-35
0.3479 	5.08133e-36
0.3486 	1.34885e-36
0.3493 	3.29511e-37
0.35 	5.15628e-38
0.3507 	2.74256e-38
0.3514 	7.75141e-39
0.3521 	4.41086e-39
0.3528 	2.06084e-39
0.3535 	1.03153e-39
0.3542 	4.79828e-40
0.3549 	1.93296e-40
0.3556 	9.57436e-41
0.3563 	3.33968e-41
0.3577 	7.99454e-42
0.3584 	4.59675e-42
0.3591 	2.39234e-42
0.3598 	1.38059e-42
0.3605 	8.28862e-43
0.3612 	4.61148e-43
0.3619 	2.88639e-43
0.3626 	1.44523e-43
0.3633 	8.07676e-44
0.364 	3.29182e-44
0.3647 	1.36949e-44
0.3654 	3.77722e-45
0.3661 	8.38801e-46
0.3668 	1.18519e-46
0.3675 	2.68036e-48
0.3682 	1.4116e-48
0.3689 	3.6996e-49
0.3696 	1.63088e-49
0.3703 	3.43506e-50
0.378 	1.3853e-56
0.3787 	6.70249e-57
0.3794 	3.63985e-57
0.3801 	1.19283e-57
0.3836 	1.87023e-60
0.3871 	3.61623e-64
0.3885 	2.87331e-67
0.3892 	-1.06937e-69
0.3899 	-1.63434e-69
0.3906 	-1.74395e-69
0.392 	-1.65912e-69
0.3927 	-1.54429e-69
0.3934 	-1.41339e-69
0.3941 	-1.28401e-69
0.3969 	-8.17901e-70
0.3976 	-7.19093e-70
0.3983 	-6.3419e-70
0.399 	-5.54781e-70
0.3997 	-4.85255e-70
0.4004 	-4.23479e-70
0.4011 	-3.67514e-70
0.4018 	-3.20526e-70
0.4025 	-2.75985e-70
0.4067 	-1.1463e-70
0.4074 	-9.78926e-71
0.4081 	-8.44157e-71
0.4088 	-7.1696e-71
0.4095 	-6.17516e-71
0.4102 	-5.24746e-71
0.4109 	-4.48659e-71
0.4116 	-3.81652e-71
0.4137 	-2.31917e-71
0.4144 	-1.98042e-71
0.4151 	-1.66116e-71
0.4158 	-1.41267e-71
0.4165 	-1.18662e-71
0.4172 	-1.00095e-71
0.4179 	-8.42465e-72
0.4186 	-7.04367e-72
0.4193 	-5.94428e-72
0.42 	-4.92165e-72
0.4207 	-4.16767e-72
0.4214 	-3.45667e-72
0.4221 	-2.90317e-72
0.4228 	-2.41348e-72
0.4235 	-2.00888e-72
0.4242 	-1.67505e-72
0.4249 	-1.38052e-72
0.4256 	-1.15544e-72
0.4263 	-9.46175e-73
0.427 	-7.92029e-73
0.4277 	-6.50257e-73
0.4284 	-5.3942e-73
0.4291 	-4.44313e-73
0.4298 	-3.64931e-73
0.4305 	-3.01798e-73
0.4312 	-2.45164e-73
0.4319 	-2.03747e-73
0.4326 	-1.65178e-73
0.4333 	-1.36684e-73
0.434 	-1.11191e-73
0.4347 	-9.10948e-74
0.4354 	-7.44137e-74
0.4361 	-6.02937e-74
0.4368 	-4.95027e-74
0.4375 	-3.96191e-74
0.4382 	-3.27272e-74
0.4389 	-2.62863e-74
0.4403 	-1.73417e-74
0.441 	-1.40274e-74
0.4417 	-1.13743e-74
0.4431 	-7.41541e-75
0.4438 	-5.87999e-75
0.4445 	-4.80435e-75
0.4452 	-3.82634e-75
0.4459 	-3.09235e-75
0.4466 	-2.47582e-75
0.4473 	-1.97671e-75
0.448 	-1.59254e-75
0.4487 	-1.25434e-75
0.4494 	-1.01813e-75
0.4501 	-8.00429e-76
0.4536 	-2.55612e-76
0.4543 	-2.04794e-76
0.455 	-1.58905e-76
0.4557 	-1.28439e-76
0.4564 	-1.00182e-76
0.4571 	-8.00219e-77
0.4578 	-6.28042e-77
0.4585 	-4.95091e-77
0.4592 	-3.91436e-77
0.4599 	-3.0405e-77
0.4606 	-2.42491e-77
0.4613 	-1.86657e-77
0.462 	-1.49263e-77
0.4627 	-1.15598e-77
0.4634 	-9.12549e-78
0.4641 	-7.11866e-78
0.4648 	-5.53914e-78
0.4655 	-4.35803e-78
0.4662 	-3.33629e-78
0.4718 	-4.49107e-79
0.4725 	-3.3863e-79
0.4732 	-2.68469e-79
0.4739 	-2.03827e-79
0.4746 	-1.59408e-79
0.4753 	-1.22009e-79
0.476 	-9.39699e-80
0.4767 	-7.26101e-80
0.4774 	-5.496e-80
0.4781 	-4.2944e-80
0.4788 	-3.21636e-80
0.4795 	-2.5233e-80
0.4802 	-1.90472e-80
0.4809 	-1.47232e-80
0.4816 	-1.12163e-80
0.4823 	-8.52598e-81
0.483 	-6.56521e-81
0.4837 	-4.89624e-81
0.4844 	-3.81854e-81
0.4851 	-2.84277e-81
0.4858 	-2.20607e-81
0.4865 	-1.65691e-81
0.4872 	-1.26525e-81
0.4879 	-9.60104e-82
0.4886 	-7.19855e-82
0.4893 	-5.52932e-82
0.49 	-4.05996e-82
0.4907 	-3.16377e-82
0.4914 	-2.34281e-82
0.4921 	-1.7976e-82
0.4928 	-1.3443e-82
0.4935 	-1.01354e-82
0.4942 	-7.66791e-83
0.4949 	-5.66706e-83
0.4956 	-4.34654e-83
0.4963 	-3.17379e-83
0.4977 	-1.80387e-83
0.4984 	-1.36785e-83
0.5005 	-5.72606e-84
0.5012 	-4.16836e-84
0.504 	-1.30032e-84
0.5047 	-9.7399e-85
0.5054 	-7.23971e-85
0.5061 	-5.31183e-85
0.5068 	-4.00599e-85
0.5075 	-2.8697e-85
0.5082 	-2.20166e-85
0.5089 	-1.59286e-85
0.5096 	-1.20119e-85
0.5103 	-8.79212e-86
0.511 	-6.50152e-86
0.5117 	-4.82432e-86
0.5124 	-3.48775e-86
0.5131 	-2.62998e-86
0.5152 	-1.02643e-86
0.5159 	-7.6491e-87
0.518 	-3.02119e-87
0.5187 	-2.1502e-87
0.5194 	-1.62305e-87
0.5201 	-1.15284e-87
0.5208 	-8.65672e-88
0.5215 	-6.22387e-88
0.5222 	-4.58052e-88
0.5229 	-3.34008e-88
0.5236 	-2.40182e-88
0.5243 	-1.781e-88
0.525 	-1.24671e-88
0.5257 	-9.43173e-89
0.5264 	-6.6782e-89
0.5271 	-4.95738e-89
0.5278 	-3.55689e-89
0.5285 	-2.5835e-89
0.5306 	-9.90181e-90
0.5313 	-6.90718e-90
0.5355 	-1.00249e-90
0.5362 	-6.98809e-91
0.5369 	-5.20117e-91
0.5376 	-3.61761e-91
0.5383 	-2.6781e-91
0.539 	-1.8882e-91
0.5397 	-1.36746e-91
0.5404 	-9.79713e-92
0.5411 	-6.91721e-92
0.5418 	-5.05113e-92
0.5425 	-3.4614e-92
0.5432 	-2.58567e-92
0.5439 	-1.7945e-92
0.5453 	-9.25103e-93
0.546 	-6.61182e-93
0.5488 	-1.64945e-93
0.5495 	-1.21923e-93
0.5502 	-8.45073e-94
0.5509 	-6.11049e-94
0.5516 	-4.30504e-94
0.5523 	-3.03419e-94
0.553 	-2.17909e-94
0.5537 	-1.49029e-94
0.5544 	-1.09525e-94
0.5551 	-7.47267e-95
0.5558 	-5.46269e-95
0.5565 	-3.78393e-95
0.5572 	-2.70115e-95
0.5579 	-1.90442e-95
0.5586 	-1.32223e-95
0.5593 	-9.52107e-96
0.56 	-6.39785e-96
0.5607 	-4.72578e-96
0.5614 	-3.22058e-96
0.5621 	-2.3269e-96
0.5628 	-1.61188e-96
0.5635 	-1.1351e-96
0.5642 	-8.01673e-97
0.5649 	-5.47861e-97
0.5656 	-3.9602e-97
0.5663 	-2.65703e-97
0.567 	-1.94174e-97
0.5712 	-2.16237e-98
0.5719 	-1.57104e-98
0.5726 	-1.05301e-98
0.5733 	-7.60916e-99
0.574 	-5.18435e-99
0.5817 	-9.4112e-101
0.5824 	-6.33318e-101
0.5831 	-4.52574e-101
0.5838 	-2.98514e-101
0.5845 	-2.15952e-101
0.5852 	-1.44796e-101
0.5859 	-1.02153e-101
0.5866 	-6.98352e-102
0.5873 	-4.78397e-102
0.588 	-3.34636e-102
0.5887 	-2.21354e-102
0.5894 	-1.59194e-102
0.5901 	-1.0501e-102
0.5908 	-7.51264e-103
0.5915 	-5.04467e-103
0.5943 	-1.14247e-103
0.595 	-7.42075e-104
0.5957 	-5.37875e-104
0.5964 	-3.55152e-104
0.5992 	-7.99461e-105
0.6034 	-8.0947e-106
0.6041 	-5.46712e-106
0.6048 	-3.70331e-106
0.6055 	-2.56381e-106
0.6062 	-1.67403e-106
0.6069 	-1.19412e-106
0.6076 	-7.77497e-107
0.6083 	-5.51741e-107
0.609 	-3.6609e-107
0.6097 	-2.52601e-107
0.6125 	-5.1169e-108
0.6132 	-3.68426e-108
0.6139 	-2.40503e-108
0.6146 	-1.68796e-108
0.6153 	-1.12457e-108
0.6202 	-7.25579e-110
0.6209 	-5.03496e-110
0.6216 	-3.37185e-110
0.6223 	-2.26625e-110
0.623 	-1.55752e-110
0.6237 	-1.00753e-110
0.6244 	-7.14515e-111
0.6251 	-4.60896e-111
0.6258 	-3.25238e-111
0.6265 	-2.14e-111
0.6272 	-1.46699e-111
0.6279 	-9.87925e-112
0.6342 	-2.8115e-113
0.6356 	-1.27619e-113
0.637 	-5.73999e-114
0.6377 	-3.71479e-114
0.6384 	-2.55298e-114
0.6391 	-1.68821e-114
0.6412 	-4.83709e-115
0.6419 	-3.39069e-115
0.6426 	-2.14485e-115
0.6433 	-1.49343e-115
0.644 	-9.62461e-116
0.6447 	-6.48227e-116
0.6454 	-4.27325e-116
0.6461 	-2.76421e-116
0.6468 	-1.87428e-116
0.6475 	-1.1531e-116
0.6482 	-8.10408e-117
0.6489 	-5.06495e-117
0.6496 	-3.44702e-117
0.6503 	-2.19727e-117
0.651 	-1.43845e-117
0.6517 	-9.40209e-118
0.6524 	-5.86685e-118
0.6531 	-3.96026e-118
0.6538 	-2.3884e-118
0.6545 	-1.63819e-118
0.6552 	-1.00482e-118
0.6559 	-6.63566e-119
0.6566 	-4.16043e-119
0.6573 	-2.62221e-119
0.658 	-1.69231e-119
0.6587 	-1.00573e-119
0.6594 	-6.75071e-120
0.6601 	-3.96146e-120
0.6608 	-2.63549e-120
0.6615 	-1.57827e-120
0.6622 	-1.00466e-120
0.6629 	-6.18489e-121
0.6685 	-1.25544e-122
0.6692 	-7.79115e-123
0.6699 	-4.61604e-123
0.6706 	-3.02325e-123
0.6713 	-1.74899e-123
0.672 	-1.18667e-123
0.6727 	-7.15891e-124
0.6734 	-4.73939e-124
0.6783 	-2.51394e-125
0.679 	-1.65021e-125
0.6797 	-1.1369e-125
0.6818 	-3.65618e-126
0.6825 	-2.39171e-126
0.6832 	-1.75227e-126
0.6839 	-1.17964e-126
0.6846 	-8.51878e-127
0.6853 	-5.9129e-127
0.686 	-4.20266e-127
0.6895 	-7.77076e-128
0.6902 	-5.34803e-128
0.6909 	-3.79564e-128
0.6916 	-2.58926e-128
0.6923 	-1.7287e-128
0.693 	-1.15342e-128
0.6937 	-6.92255e-129
0.6944 	-4.43848e-129
0.6951 	-2.30285e-129
0.6958 	-1.28271e-129
0.6965 	-5.12731e-130
0.6972 	-2.013e-130
0.6986 	-1.16688e-131
0.6993 	-2.67568e-132
0.7 	-4.17034e-133
