0 	1
0.0007 	1
0.0014 	1
0.0021 	1
0.0028 	1
0.0035 	1
0.0042 	1
0.0049 	1
0.0056 	1
0.0063 	1
0.007 	1
0.0077 	1
0.0084 	1
0.0091 	1
0.0098 	1
0.0105 	1
0.0112 	1
0.0119 	1
0.0126 	1
0.0133 	1
0.014 	1
0.0147 	1
0.0154 	1
0.0161 	1
0.0168 	1
0.0175 	1
0.0182 	1
0.0189 	1
0.0196 	1
0.0203 	1
0.021 	1
0.0217 	1
0.0224 	1
0.0231 	1
0.0238 	1
0.0245 	1
0.0252 	1
0.0259 	1
0.0266 	1
0.0273 	1
0.028 	1
0.0287 	1
0.0294 	1
0.0301 	1
0.0308 	1
0.0315 	1
0.0322 	1
0.0329 	1
0.0336 	1
0.0343 	1
0.035 	1
0.0357 	1
0.0364 	1
0.0371 	1
0.0378 	1
0.0385 	1
0.0392 	1
0.0399 	1
0.0406 	1
0.0413 	1
0.042 	1
0.0427 	1
0.0434 	1
0.0441 	1
0.0448 	1
0.0455 	1
0.0462 	1
0.0469 	1
0.0476 	1
0.0483 	1
0.049 	1
0.0497 	1
0.0504 	1
0.0511 	1
0.0518 	1
0.0525 	1
0.0532 	1
0.0539 	1
0.0546 	1
0.0553 	1
0.056 	1
0.0567 	1
0.0574 	1
0.0581 	1
0.0588 	1
0.0595 	1
0.0602 	1
0.0609 	1
0.0616 	1
0.0623 	1
0.063 	1
0.0637 	1
0.0644 	1
0.0651 	1
0.0658 	1
0.0665 	1
0.0672 	1
0.0679 	1
0.0686 	1
0.0693 	1
0.07 	1
0.0707 	1
0.0714 	1
0.0721 	1
0.0728 	1
0.0735 	1
0.0742 	1
0.0749 	1
0.0756 	1
0.0763 	1
0.077 	1
0.0777 	1
0.0784 	1
0.0791 	1
0.0798 	1
0.0805 	1
0.0812 	1
0.0819 	1
0.0826 	1
0.0833 	1
0.084 	1
0.0847 	1
0.0854 	1
0.0861 	1
0.0868 	1
0.0875 	1
0.0882 	1
0.0889 	1
0.0896 	1
0.0903 	1
0.091 	1
0.0917 	1
0.0924 	1
0.0931 	1
0.0938 	1
0.0945 	1
0.0952 	1
0.0959 	1
0.0966 	1
0.0973 	1
0.098 	1
0.0987 	1
0.0994 	1
0.1001 	1
0.1008 	1
0.1015 	1
0.1022 	1
0.1029 	1
0.1036 	1
0.1043 	1
0.105 	1
0.1057 	1
0.1064 	1
0.1071 	1
0.1078 	1
0.1085 	1
0.1092 	1
0.1099 	1
0.1106 	1
0.1113 	1
0.112 	1
0.1127 	1
0.1134 	1
0.1141 	1
0.1148 	1
0.1155 	1
0.1162 	1
0.1169 	1
0.1176 	1
0.1183 	1
0.119 	1
0.1197 	1
0.1204 	1
0.1211 	1
0.1218 	1
0.1225 	1
0.1232 	1
0.1239 	1
0.1246 	1
0.1253 	1
0.126 	1
0.1267 	1
0.1274 	1
0.1281 	1
0.1288 	1
0.1295 	1
0.1302 	1
0.1309 	1
0.1316 	1
0.1323 	1
0.133 	1
0.1337 	1
0.1344 	1
0.1351 	1
0.1358 	1
0.1365 	1
0.1372 	1
0.1379 	1
0.1386 	1
0.1393 	1
0.14 	1
0.1407 	1
0.1414 	1
0.1421 	1
0.1428 	1
0.1435 	1
0.1442 	1
0.1449 	1
0.1456 	1
0.1463 	1
0.147 	1
0.1477 	1
0.1484 	1
0.1491 	1
0.1498 	1
0.1505 	1
0.1512 	1
0.1519 	1
0.1526 	1
0.1533 	1
0.154 	1
0.1547 	1
0.1554 	1
0.1561 	1
0.1568 	1
0.1575 	1
0.1582 	1
0.1589 	1
0.1596 	1
0.1603 	1
0.161 	1
0.1617 	1
0.1624 	1
0.1631 	1
0.1638 	1
0.1645 	1
0.1652 	1
0.1659 	1
0.1666 	1
0.1673 	1
0.168 	1
0.1687 	1
0.1694 	1
0.1701 	1
0.1708 	1
0.1715 	1
0.1722 	1
0.1729 	1
0.1736 	1
0.1743 	1
0.175 	1
0.1757 	1
0.1764 	1
0.1771 	1
0.1778 	1
0.1785 	1
0.1792 	1
0.1799 	1
0.1806 	1
0.1813 	1
0.182 	1
0.1827 	1
0.1834 	1
0.1841 	1
0.1848 	1
0.1855 	1
0.1862 	1
0.1869 	1
0.1876 	1
0.1883 	1
0.189 	1
0.1897 	1
0.1904 	1
0.1911 	1
0.1918 	1
0.1925 	1
0.1932 	1
0.1939 	1
0.1946 	1
0.1953 	1
0.196 	1
0.1967 	1
0.1974 	1
0.1981 	1
0.1988 	1
0.1995 	1
0.2002 	1
0.2009 	1
0.2016 	1
0.2023 	1
0.203 	1
0.2037 	1
0.2044 	1
0.2051 	1
0.2058 	1
0.2065 	1
0.2072 	1
0.2079 	1
0.2086 	1
0.2093 	1
0.21 	1
0.2107 	1
0.2114 	1
0.2121 	1
0.2128 	1
0.2135 	1
0.2142 	1
0.2149 	1
0.2156 	1
0.2163 	1
0.217 	1
0.2177 	1
0.2184 	1
0.2191 	1
0.2198 	1
0.2205 	1
0.2212 	1
0.2219 	1
0.2226 	1
0.2233 	1
0.224 	1
0.2247 	1
0.2254 	1
0.2261 	1
0.2268 	1
0.2275 	1
0.2282 	1
0.2289 	1
0.2296 	1
0.2303 	1
0.231 	1
0.2317 	1
0.2324 	1
0.2331 	1
0.2338 	1
0.2345 	1
0.2352 	1
0.2359 	0.999999
0.2366 	0.999998
0.2373 	0.999997
0.238 	0.999996
0.2387 	0.999996
0.2394 	0.999995
0.2401 	0.999981
0.2408 	0.999891
0.2415 	0.999801
0.2422 	0.99971
0.2429 	0.99962
0.2436 	0.99953
0.2443 	0.999439
0.245 	0.999349
0.2457 	0.99543
0.2464 	0.991509
0.2471 	0.987588
0.2478 	0.983668
0.2485 	0.979747
0.2492 	0.975826
0.2499 	0.971905
0.2506 	0.942387
0.2513 	0.90859
0.252 	0.874794
0.2527 	0.840998
0.2534 	0.807201
0.2541 	0.773405
0.2548 	0.739609
0.2555 	0.684967
0.2562 	0.621996
0.2569 	0.559025
0.2576 	0.496054
0.2583 	0.433083
0.259 	0.370112
0.2597 	0.307141
0.2604 	0.259587
0.2611 	0.223624
0.2618 	0.187661
0.2625 	0.151699
0.2632 	0.115736
0.2639 	0.0797732
0.2646 	0.0438105
0.2653 	0.021941
0.266 	0.0188385
0.2667 	0.0157359
0.2674 	0.0126332
0.2681 	0.0095305
0.2688 	0.00642781
0.2695 	0.00332513
0.2702 	0.00106695
0.2709 	0.000916364
0.2716 	0.000765759
0.2723 	0.000615139
0.273 	0.000464519
0.2737 	0.000313898
0.2744 	0.000163278
0.2751 	3.35477e-05
0.2758 	2.8777e-05
0.2765 	2.40057e-05
0.2772 	1.92333e-05
0.2779 	1.44609e-05
0.2786 	9.68858e-06
0.2793 	4.91622e-06
0.28 	1.458e-07
0.2807 	1.25395e-07
0.2814 	1.04999e-07
0.2821 	8.45956e-08
0.2828 	6.41927e-08
0.2835 	4.37897e-08
0.2842 	2.33868e-08
0.2849 	2.98381e-09
0.2856 	6.82258e-11
0.2863 	5.73766e-11
0.287 	4.65217e-11
0.2877 	3.56667e-11
0.2884 	2.48118e-11
0.2891 	1.39568e-11
0.2898 	3.10188e-12
0.2905 	4.47514e-15
0.2912 	3.77957e-15
0.2919 	3.0835e-15
0.2926 	2.38738e-15
0.2933 	1.69126e-15
0.294 	9.9514e-16
0.2947 	2.99022e-16
0.2954 	8.97429e-19
0.2961 	7.60996e-19
0.2968 	6.24438e-19
0.2975 	4.87845e-19
0.2982 	3.51253e-19
0.2989 	2.14661e-19
0.2996 	7.80682e-20
0.3003 	6.81048e-23
0.301 	5.79758e-23
0.3017 	4.78354e-23
0.3024 	3.76886e-23
0.3031 	2.75418e-23
0.3038 	1.73951e-23
0.3045 	7.24828e-24
0.3052 	4.63537e-27
0.3059 	3.96063e-27
0.3066 	3.2851e-27
0.3073 	2.60876e-27
0.308 	1.93242e-27
0.3087 	1.25608e-27
0.3094 	5.79746e-28
0.3101 	3.05456e-31
0.3108 	2.61918e-31
0.3115 	2.18335e-31
0.3122 	1.74668e-31
0.3129 	1.31001e-31
0.3136 	8.73346e-32
0.3143 	4.36679e-32
0.315 	1.94708e-35
0.3157 	1.6751e-35
0.3164 	1.40304e-35
0.3171 	1.13023e-35
0.3178 	8.57416e-36
0.3185 	5.84603e-36
0.3192 	3.11789e-36
0.3199 	3.89762e-37
0.3206 	1.03524e-39
0.3213 	8.71063e-40
0.322 	7.06267e-40
0.3227 	5.41471e-40
0.3234 	3.76676e-40
0.3241 	2.1188e-40
0.3248 	4.70836e-41
0.3255 	6.15986e-44
0.3262 	5.20521e-44
0.3269 	4.2466e-44
0.3276 	3.28768e-44
0.3283 	2.32877e-44
0.329 	1.36986e-44
0.3297 	4.10942e-45
0.3304 	3.51893e-48
0.3311 	2.98553e-48
0.3318 	2.45012e-48
0.3325 	1.91415e-48
0.3332 	1.37818e-48
0.3339 	8.42214e-49
0.3346 	3.06246e-49
0.3353 	1.92449e-52
0.336 	1.63903e-52
0.3367 	1.35263e-52
0.3374 	1.06571e-52
0.3381 	7.78781e-53
0.3388 	4.91856e-53
0.3395 	2.0493e-53
0.3402 	1.00536e-56
0.3409 	8.5936e-57
0.3416 	7.12964e-57
0.3423 	5.66175e-57
0.343 	4.19386e-57
0.3437 	2.72597e-57
0.3444 	1.25808e-57
0.3451 	5.01136e-61
0.3458 	4.29849e-61
0.3465 	3.5842e-61
0.3472 	2.86735e-61
0.3479 	2.1505e-61
0.3486 	1.43364e-61
0.3493 	7.1679e-62
0.35 	2.38407e-65
0.3507 	2.05158e-65
0.3514 	1.71886e-65
0.3521 	1.38463e-65
0.3528 	1.0504e-65
0.3535 	7.1617e-66
0.3542 	3.81941e-66
0.3549 	4.77125e-67
0.3556 	9.35483e-70
0.3563 	7.87333e-70
0.357 	6.38375e-70
0.3577 	4.89417e-70
0.3584 	3.40459e-70
0.3591 	1.915e-70
0.3598 	4.25422e-71
0.3605 	4.08329e-74
0.3612 	3.45124e-74
0.3619 	2.81569e-74
0.3626 	2.17987e-74
0.3633 	1.54405e-74
0.364 	9.08231e-75
0.3647 	2.72412e-75
0.3654 	1.71005e-78
0.3661 	1.45109e-78
0.3668 	1.19091e-78
0.3675 	9.30388e-79
0.3682 	6.69869e-79
0.3689 	4.09351e-79
0.3696 	1.48832e-79
0.3703 	6.88709e-83
0.371 	5.86626e-83
0.3717 	4.84146e-83
0.3724 	3.81445e-83
0.3731 	2.78744e-83
0.3738 	1.76043e-83
0.3745 	7.33425e-84
0.3752 	2.67376e-87
0.3759 	2.28565e-87
0.3766 	1.89638e-87
0.3773 	1.50593e-87
0.378 	1.11549e-87
0.3787 	7.25047e-88
0.3794 	3.34604e-88
0.3801 	1.00262e-91
0.3808 	8.59983e-92
0.3815 	7.17059e-92
0.3822 	5.73611e-92
0.3829 	4.30164e-92
0.3836 	2.86716e-92
0.3843 	1.43268e-92
0.385 	-1.19791e-95
0.3857 	-1.26368e-95
0.3864 	-1.3281e-95
0.3871 	-1.38747e-95
0.3878 	-1.44685e-95
0.3885 	-1.50623e-95
0.3892 	-1.5656e-95
0.3899 	-1.62498e-95
0.3906 	-1.46727e-95
0.3913 	-1.28417e-95
0.392 	-1.24236e-95
0.3927 	-1.20056e-95
0.3934 	-1.15875e-95
0.3941 	-1.11694e-95
0.3948 	-1.07514e-95
0.3955 	-9.33451e-96
0.3962 	-7.51686e-96
0.3969 	-6.96644e-96
0.3976 	-6.5135e-96
0.3983 	-6.06055e-96
0.399 	-5.60761e-96
0.3997 	-5.15467e-96
0.4004 	-4.40467e-96
0.4011 	-3.43087e-96
0.4018 	-3.01999e-96
0.4025 	-2.76263e-96
0.4032 	-2.50528e-96
0.4039 	-2.24792e-96
0.4046 	-1.99056e-96
0.4053 	-1.67685e-96
0.406 	-1.28737e-96
0.4067 	-1.07955e-96
0.4074 	-9.72647e-97
0.4081 	-8.65746e-97
0.4088 	-7.58845e-97
0.4095 	-6.51945e-97
0.4102 	-5.39302e-97
0.4109 	-4.11973e-97
0.4116 	-3.30344e-97
0.4123 	-2.94416e-97
0.413 	-2.58488e-97
0.4137 	-2.2256e-97
0.4144 	-1.86631e-97
0.4151 	-1.50782e-97
0.4158 	-1.15202e-97
0.4165 	-8.86644e-98
0.4172 	-7.84032e-98
0.4179 	-6.81419e-98
0.4186 	-5.78807e-98
0.4193 	-4.76195e-98
0.42 	-3.73637e-98
0.4207 	-2.86379e-98
0.4214 	-2.12309e-98
0.4221 	-1.86676e-98
0.4228 	-1.61042e-98
0.4235 	-1.35408e-98
0.4242 	-1.09774e-98
0.4249 	-8.41399e-99
0.4256 	-6.40974e-99
0.4263 	-4.59248e-99
0.427 	-4.02168e-99
0.4277 	-3.45088e-99
0.4284 	-2.88007e-99
0.4291 	-2.30927e-99
0.4298 	-1.73847e-99
0.4305 	-1.30463e-99
0.4312 	-9.2504e-100
0.4319 	-7.91287e-100
0.4326 	-6.76445e-100
0.4333 	-5.61602e-100
0.434 	-4.46759e-100
0.4347 	-3.31916e-100
0.4354 	-2.4343e-100
0.4361 	-1.74584e-100
0.4368 	-1.43259e-100
0.4375 	-1.22166e-100
0.4382 	-1.01073e-100
0.4389 	-7.99806e-101
0.4396 	-5.88879e-101
0.4403 	-4.19176e-101
0.441 	-3.04138e-101
0.4417 	-2.40133e-101
0.4424 	-2.04481e-101
0.4431 	-1.68829e-101
0.4438 	-1.33176e-101
0.4445 	-9.75239e-102
0.4452 	-6.6987e-102
0.4459 	-4.91644e-102
0.4466 	-3.74619e-102
0.4473 	-3.18794e-102
0.448 	-2.6297e-102
0.4487 	-2.07145e-102
0.4494 	-1.5132e-102
0.4501 	-9.98256e-103
0.4508 	-7.40883e-103
0.4515 	-5.4635e-103
0.4522 	-4.64932e-103
0.4529 	-3.83513e-103
0.4536 	-3.02094e-103
0.4543 	-2.20676e-103
0.455 	-1.39294e-103
0.4557 	-1.04503e-103
0.4564 	-7.47787e-104
0.4571 	-6.36668e-104
0.4578 	-5.2555e-104
0.4585 	-4.14431e-104
0.4592 	-3.03312e-104
0.4599 	-1.92194e-104
0.4606 	-1.3847e-104
0.4613 	-9.6383e-105
0.462 	-8.21353e-105
0.4627 	-6.78876e-105
0.4634 	-5.36399e-105
0.4641 	-3.93923e-105
0.4648 	-2.51446e-105
0.4655 	-1.72939e-105
0.4662 	-1.19914e-105
0.4669 	-1.00131e-105
0.4676 	-8.2906e-106
0.4683 	-6.56806e-106
0.469 	-4.84551e-106
0.4697 	-3.12297e-106
0.4704 	-2.0419e-106
0.4711 	-1.44034e-106
0.4718 	-1.15665e-106
0.4725 	-9.59661e-107
0.4732 	-7.62666e-107
0.4739 	-5.65672e-107
0.4746 	-3.68678e-107
0.4753 	-2.28468e-107
0.476 	-1.63732e-107
0.4767 	-1.26878e-107
0.4774 	-1.05515e-107
0.4781 	-8.41513e-108
0.4788 	-6.27877e-108
0.4795 	-4.14241e-108
0.4802 	-2.42827e-108
0.4809 	-1.76586e-108
0.4816 	-1.32454e-108
0.4823 	-1.1043e-108
0.483 	-8.84062e-109
0.4837 	-6.63824e-109
0.4844 	-4.43585e-109
0.4851 	-2.45693e-109
0.4858 	-1.81103e-109
0.4865 	-1.31856e-109
0.4872 	-1.10225e-109
0.4879 	-8.85941e-110
0.4886 	-6.69634e-110
0.4893 	-4.53326e-110
0.49 	-2.37111e-110
0.4907 	-1.76991e-110
0.4914 	-1.25396e-110
0.4921 	-1.05115e-110
0.4928 	-8.48347e-111
0.4935 	-6.4554e-111
0.4942 	-4.42732e-111
0.4949 	-2.39925e-111
0.4956 	-1.65147e-111
0.4963 	-1.14119e-111
0.497 	-9.59332e-112
0.4977 	-7.77475e-112
0.4984 	-5.95618e-112
0.4991 	-4.1376e-112
0.4998 	-2.31903e-112
0.5005 	-1.47389e-112
0.5012 	-1.0169e-112
0.5019 	-8.39188e-113
0.5026 	-6.82963e-113
0.5033 	-5.26737e-113
0.504 	-3.70512e-113
0.5047 	-2.14287e-113
0.5054 	-1.26023e-113
0.5061 	-8.86006e-114
0.5068 	-7.04637e-114
0.5075 	-5.75863e-114
0.5082 	-4.47089e-114
0.5089 	-3.18315e-114
0.5096 	-1.89541e-114
0.5103 	-1.03395e-114
0.511 	-7.39444e-115
0.5117 	-5.68694e-115
0.5124 	-4.66695e-115
0.5131 	-3.64697e-115
0.5138 	-2.62698e-115
0.5145 	-1.60699e-115
0.5152 	-8.15176e-116
0.5159 	-5.92137e-116
0.5166 	-4.41747e-116
0.5173 	-3.64005e-116
0.518 	-2.86264e-116
0.5187 	-2.08523e-116
0.5194 	-1.30781e-116
0.5201 	-6.18557e-117
0.5208 	-4.55762e-117
0.5215 	-3.30714e-117
0.5222 	-2.73613e-117
0.5229 	-2.16512e-117
0.5236 	-1.59411e-117
0.5243 	-1.02309e-117
0.525 	-4.52315e-118
0.5257 	-3.37675e-118
0.5264 	-2.38909e-118
0.5271 	-1.98438e-118
0.5278 	-1.57968e-118
0.5285 	-1.17498e-118
0.5292 	-7.70278e-119
0.5299 	-3.65576e-119
0.5306 	-2.41084e-119
0.5313 	-1.66675e-119
0.532 	-1.38974e-119
0.5327 	-1.11274e-119
0.5334 	-8.35737e-120
0.5341 	-5.58734e-120
0.5348 	-2.81731e-120
0.5355 	-1.66067e-120
0.5362 	-1.14767e-120
0.5369 	-9.40818e-121
0.5376 	-7.57521e-121
0.5383 	-5.74224e-121
0.539 	-3.90927e-121
0.5397 	-2.0763e-121
0.5404 	-1.10497e-121
0.5411 	-7.78449e-122
0.5418 	-6.16256e-122
0.5425 	-4.98878e-122
0.5432 	-3.815e-122
0.5439 	-2.64123e-122
0.5446 	-1.46745e-122
0.5453 	-7.10957e-123
0.546 	-5.0964e-123
0.5467 	-3.90934e-123
0.5474 	-3.18124e-123
0.5481 	-2.45314e-123
0.5488 	-1.72504e-123
0.5495 	-9.96946e-124
0.5502 	-4.42806e-124
0.5509 	-3.22459e-124
0.5516 	-2.40392e-124
0.5523 	-1.96603e-124
0.553 	-1.52813e-124
0.5537 	-1.09024e-124
0.5544 	-6.5235e-125
0.5551 	-2.67229e-125
0.5558 	-1.97416e-125
0.5565 	-1.4341e-125
0.5572 	-1.17854e-125
0.5579 	-9.22977e-126
0.5586 	-6.67418e-126
0.5593 	-4.11858e-126
0.56 	-1.56399e-126
0.5607 	-1.17076e-126
0.5614 	-8.3068e-127
0.5621 	-6.85828e-127
0.5628 	-5.40975e-127
0.5635 	-3.96123e-127
0.5642 	-2.51271e-127
0.5649 	-1.06418e-127
0.5656 	-6.73249e-128
0.5663 	-4.67551e-128
0.567 	-3.87749e-128
0.5677 	-3.07946e-128
0.5684 	-2.28144e-128
0.5691 	-1.48342e-128
0.5698 	-6.854e-129
0.5705 	-3.75782e-129
0.5712 	-2.61056e-129
0.5719 	-2.1315e-129
0.5726 	-1.70384e-129
0.5733 	-1.27618e-129
0.574 	-8.48521e-130
0.5747 	-4.20862e-130
0.5754 	-2.03767e-130
0.5761 	-1.44282e-130
0.5768 	-1.14006e-130
0.5775 	-9.16972e-131
0.5782 	-6.93881e-131
0.5789 	-4.70789e-131
0.5796 	-2.47698e-131
0.5803 	-1.07434e-131
0.581 	-7.73907e-132
0.5817 	-5.93732e-132
0.5824 	-4.80368e-132
0.5831 	-3.67004e-132
0.5838 	-2.5364e-132
0.5845 	-1.40275e-132
0.5852 	-5.51222e-133
0.5859 	-4.03318e-133
0.5866 	-3.0129e-133
0.5873 	-2.45137e-133
0.588 	-1.88984e-133
0.5887 	-1.32831e-133
0.5894 	-7.66786e-134
0.5901 	-2.75557e-134
0.5908 	-2.04502e-134
0.5915 	-1.49131e-134
0.5922 	-1.21987e-134
0.5929 	-9.4844e-135
0.5936 	-6.77007e-135
0.5943 	-4.05574e-135
0.595 	-1.34244e-135
0.5957 	-1.00936e-135
0.5964 	-7.20156e-136
0.5971 	-5.92096e-136
0.5978 	-4.64035e-136
0.5985 	-3.35975e-136
0.5992 	-2.07914e-136
0.5999 	-7.98535e-137
0.6006 	-4.85358e-137
0.6013 	-3.39493e-137
0.602 	-2.80488e-137
0.6027 	-2.21482e-137
0.6034 	-1.62477e-137
0.6041 	-1.03471e-137
0.6048 	-4.44658e-138
0.6055 	-2.27558e-138
0.6062 	-1.59306e-138
0.6069 	-1.29761e-138
0.6076 	-1.03194e-138
0.6083 	-7.66265e-139
0.609 	-5.00591e-139
0.6097 	-2.34918e-139
0.6104 	-1.04104e-139
0.6111 	-7.42475e-140
0.6118 	-5.86601e-140
0.6125 	-4.69642e-140
0.6132 	-3.52684e-140
0.6139 	-2.35725e-140
0.6146 	-1.18766e-140
0.6153 	-4.65042e-141
0.616 	-3.37283e-141
0.6167 	-2.59273e-141
0.6174 	-2.08901e-141
0.6181 	-1.5853e-141
0.6188 	-1.08158e-141
0.6195 	-5.77869e-142
0.6202 	-2.02986e-142
0.6209 	-1.49477e-142
0.6216 	-1.12106e-142
0.6223 	-9.08715e-143
0.623 	-6.96372e-143
0.6237 	-4.8403e-143
0.6244 	-2.71688e-143
0.6251 	-8.66299e-144
0.6258 	-6.4684e-144
0.6265 	-4.7445e-144
0.6272 	-3.86788e-144
0.6279 	-2.99125e-144
0.6286 	-2.11462e-144
0.6293 	-1.238e-144
0.63 	-3.61697e-145
0.6307 	-2.73529e-145
0.6314 	-1.96641e-145
0.6321 	-1.61181e-145
0.6328 	-1.25721e-145
0.6335 	-9.02607e-146
0.6342 	-5.48005e-146
0.6349 	-1.93404e-146
0.6356 	-1.13113e-146
0.6363 	-7.98545e-147
0.637 	-6.57931e-147
0.6377 	-5.17318e-147
0.6384 	-3.76705e-147
0.6391 	-2.36092e-147
0.6398 	-9.54787e-148
0.6405 	-4.57746e-148
0.6412 	-3.2357e-148
0.6419 	-2.63206e-148
0.6426 	-2.0852e-148
0.6433 	-1.53833e-148
0.644 	-9.9147e-149
0.6447 	-4.44607e-149
0.6454 	-1.81392e-149
0.6461 	-1.3054e-149
0.6468 	-1.03246e-149
0.6475 	-8.23771e-150
0.6482 	-6.15083e-150
0.6489 	-4.06395e-150
0.6496 	-1.97707e-150
0.6503 	-7.04298e-151
0.651 	-5.1512e-151
0.6517 	-3.973e-151
0.6524 	-3.19123e-151
0.6531 	-2.40947e-151
0.6538 	-1.6277e-151
0.6545 	-8.45937e-152
0.6552 	-2.68091e-152
0.6559 	-1.98982e-152
0.6566 	-1.50047e-152
0.6573 	-1.21287e-152
0.658 	-9.2526e-153
0.6587 	-6.37654e-153
0.6594 	-3.50049e-153
0.6601 	-1.00098e-153
0.6608 	-7.52962e-154
0.6615 	-5.56399e-154
0.6622 	-4.52447e-154
0.6629 	-3.48494e-154
0.6636 	-2.44542e-154
0.6643 	-1.40589e-154
0.665 	-3.6675e-155
0.6657 	-2.79298e-155
0.6664 	-2.0266e-155
0.6671 	-1.65732e-155
0.6678 	-1.28805e-155
0.6685 	-9.1877e-156
0.6692 	-5.49494e-156
0.6699 	-1.80219e-156
0.6706 	-1.01613e-156
0.6713 	-7.2532e-157
0.672 	-5.96348e-157
0.6727 	-4.67377e-157
0.6734 	-3.38406e-157
0.6741 	-2.09434e-157
0.6748 	-8.04629e-158
0.6755 	-3.6278e-158
0.6762 	-2.59384e-158
0.6769 	-2.10864e-158
0.6776 	-1.66564e-158
0.6783 	-1.22265e-158
0.679 	-7.79654e-159
0.6797 	-3.36659e-159
0.6804 	-1.27159e-159
0.6811 	-9.24833e-160
0.6818 	-7.32914e-160
0.6825 	-5.83226e-160
0.6832 	-4.33537e-160
0.6839 	-2.83848e-160
0.6846 	-1.34159e-160
0.6853 	-4.37764e-161
0.686 	-3.23343e-161
0.6867 	-2.50483e-161
0.6874 	-2.00712e-161
0.6881 	-1.50941e-161
0.6888 	-1.01171e-161
0.6895 	-5.14002e-162
0.6902 	-1.48072e-162
0.6909 	-1.10914e-162
0.6916 	-8.4192e-163
0.6923 	-6.79043e-163
0.693 	-5.16166e-163
0.6937 	-3.53288e-163
0.6944 	-1.90411e-163
0.6951 	-4.91147e-164
0.6958 	-3.68666e-164
0.6965 	-2.71267e-164
0.6972 	-2.19018e-164
0.6979 	-1.66768e-164
0.6986 	-1.14519e-164
0.6993 	-6.22689e-165
0.7 	-1.00385e-165
