0 	1
0.0007 	1
0.0014 	1
0.0021 	1
0.0028 	1
0.0035 	1
0.0042 	1
0.0049 	1
0.0056 	1
0.0063 	1
0.007 	1
0.0077 	1
0.0084 	1
0.0091 	1
0.0098 	1
0.0105 	1
0.0112 	1
0.0119 	1
0.0126 	1
0.0133 	1
0.014 	1
0.0147 	1
0.0154 	1
0.0161 	1
0.0168 	1
0.0175 	1
0.0182 	1
0.0189 	1
0.0196 	1
0.0203 	1
0.021 	1
0.0217 	1
0.0224 	1
0.0231 	1
0.0238 	1
0.0245 	1
0.0252 	1
0.0259 	1
0.0266 	1
0.0273 	1
0.028 	1
0.0287 	1
0.0294 	1
0.0301 	1
0.0308 	1
0.0315 	1
0.0322 	1
0.0329 	1
0.0336 	1
0.0343 	1
0.035 	1
0.0357 	1
0.0364 	1
0.0371 	1
0.0378 	1
0.0385 	1
0.0392 	1
0.0399 	1
0.0406 	1
0.0413 	1
0.042 	1
0.0427 	1
0.0434 	1
0.0441 	1
0.0448 	1
0.0455 	1
0.0462 	1
0.0469 	1
0.0476 	1
0.0483 	1
0.049 	1
0.0497 	1
0.0504 	1
0.0511 	1
0.0518 	1
0.0525 	1
0.0532 	1
0.0539 	1
0.0546 	1
0.0553 	1
0.056 	1
0.0567 	1
0.0574 	1
0.0581 	1
0.0588 	1
0.0595 	1
0.0602 	1
0.0609 	1
0.0616 	1
0.0623 	1
0.063 	1
0.0637 	1
0.0644 	1
0.0651 	1
0.0658 	1
0.0665 	1
0.0672 	1
0.0679 	1
0.0686 	1
0.0693 	1
0.07 	1
0.0707 	1
0.0714 	1
0.0721 	1
0.0728 	1
0.0735 	1
0.0742 	1
0.0749 	1
0.0756 	1
0.0763 	1
0.077 	1
0.0777 	1
0.0784 	1
0.0791 	1
0.0798 	1
0.0805 	1
0.0812 	1
0.0819 	1
0.0826 	1
0.0833 	1
0.084 	1
0.0847 	1
0.0854 	1
0.0861 	1
0.0868 	1
0.0875 	1
0.0882 	1
0.0889 	1
0.0896 	1
0.0903 	1
0.091 	1
0.0917 	1
0.0924 	1
0.0931 	1
0.0938 	1
0.0945 	1
0.0952 	1
0.0959 	1
0.0966 	1
0.0973 	1
0.098 	1
0.0987 	1
0.0994 	1
0.1001 	1
0.1008 	1
0.1015 	1
0.1022 	1
0.1029 	1
0.1036 	1
0.1043 	1
0.105 	1
0.1057 	1
0.1064 	1
0.1071 	1
0.1078 	1
0.1085 	1
0.1092 	1
0.1099 	1
0.1106 	1
0.1113 	1
0.112 	1
0.1127 	1
0.1134 	1
0.1141 	1
0.1148 	1
0.1155 	1
0.1162 	1
0.1169 	1
0.1176 	1
0.1183 	1
0.119 	1
0.1197 	1
0.1204 	1
0.1211 	1
0.1218 	1
0.1225 	1
0.1232 	1
0.1239 	1
0.1246 	1
0.1253 	1
0.126 	1
0.1267 	1
0.1274 	1
0.1281 	1
0.1288 	1
0.1295 	1
0.1302 	1
0.1309 	1
0.1316 	1
0.1323 	1
0.133 	1
0.1337 	1
0.1344 	1
0.1351 	1
0.1358 	1
0.1365 	1
0.1372 	1
0.1379 	1
0.1386 	1
0.1393 	1
0.14 	1
0.1407 	1
0.1414 	1
0.1421 	1
0.1428 	1
0.1435 	1
0.1442 	1
0.1449 	1
0.1456 	1
0.1463 	1
0.147 	1
0.1477 	1
0.1484 	1
0.1491 	1
0.1498 	1
0.1505 	1
0.1512 	1
0.1519 	1
0.1526 	1
0.1533 	1
0.154 	1
0.1547 	1
0.1554 	1
0.1561 	1
0.1568 	1
0.1575 	1
0.1582 	1
0.1589 	1
0.1596 	1
0.1603 	1
0.161 	1
0.1617 	1
0.1624 	1
0.1631 	1
0.1638 	1
0.1645 	1
0.1652 	1
0.1659 	1
0.1666 	1
0.1673 	1
0.168 	1
0.1687 	1
0.1694 	1
0.1701 	1
0.1708 	1
0.1715 	1
0.1722 	1
0.1729 	1
0.1736 	1
0.1743 	1
0.175 	1
0.1757 	1
0.1764 	1
0.1771 	1
0.1778 	1
0.1785 	1
0.1792 	1
0.1799 	1
0.1806 	1
0.1813 	1
0.182 	1
0.1827 	1
0.1834 	1
0.1841 	1
0.1848 	1
0.1855 	1
0.1862 	1
0.1869 	1
0.1876 	1
0.1883 	1
0.189 	1
0.1897 	1
0.1904 	1
0.1911 	1
0.1918 	1
0.1925 	1
0.1932 	1
0.1939 	1
0.1946 	1
0.1953 	1
0.196 	1
0.1967 	1
0.1974 	1
0.1981 	1
0.1988 	1
0.1995 	1
0.2002 	1
0.2009 	1
0.2016 	1
0.2023 	1
0.203 	1
0.2037 	1
0.2044 	1
0.2051 	1
0.2058 	1
0.2065 	1
0.2072 	1
0.2079 	1
0.2086 	1
0.2093 	1
0.21 	1
0.2107 	1
0.2114 	1
0.2121 	1
0.2128 	1
0.2135 	1
0.2142 	1
0.2149 	1
0.2156 	1
0.2163 	1
0.217 	1
0.2177 	1
0.2184 	1
0.2191 	1
0.2198 	1
0.2205 	1
0.2212 	1
0.2219 	1
0.2226 	1
0.2233 	1
0.224 	1
0.2247 	1
0.2254 	1
0.2261 	1
0.2268 	1
0.2275 	1
0.2282 	1
0.2289 	1
0.2296 	1
0.2303 	1
0.231 	1
0.2317 	1
0.2324 	1
0.2331 	1
0.2338 	1
0.2345 	1
0.2352 	1
0.2359 	0.999999
0.2366 	0.999999
0.2373 	0.999998
0.238 	0.999998
0.2387 	0.999997
0.2394 	0.999997
0.2401 	0.999995
0.2408 	0.999983
0.2415 	0.999971
0.2422 	0.999959
0.2429 	0.999947
0.2436 	0.999935
0.2443 	0.999923
0.245 	0.999912
0.2457 	0.9997
0.2464 	0.999488
0.2471 	0.999277
0.2478 	0.999065
0.2485 	0.998853
0.2492 	0.998642
0.2499 	0.99843
0.2506 	0.994166
0.2513 	0.989225
0.252 	0.984285
0.2527 	0.979344
0.2534 	0.974404
0.2541 	0.969463
0.2548 	0.964523
0.2555 	0.933021
0.2562 	0.890892
0.2569 	0.848763
0.2576 	0.806634
0.2583 	0.764505
0.259 	0.722375
0.2597 	0.680246
0.2604 	0.626547
0.2611 	0.564179
0.2618 	0.501812
0.2625 	0.439445
0.2632 	0.377078
0.2639 	0.314711
0.2646 	0.252344
0.2653 	0.204874
0.266 	0.177266
0.2667 	0.149659
0.2674 	0.122051
0.2681 	0.0944438
0.2688 	0.0668363
0.2695 	0.0392288
0.2702 	0.0187457
0.2709 	0.0160655
0.2716 	0.0133852
0.2723 	0.0107048
0.273 	0.00802432
0.2737 	0.00534389
0.2744 	0.00266346
0.2751 	0.000358939
0.2758 	0.000307821
0.2765 	0.000256696
0.2772 	0.000205562
0.2779 	0.000154428
0.2786 	0.000103293
0.2793 	5.21591e-05
0.28 	1.03087e-06
0.2807 	8.86657e-07
0.2814 	7.42434e-07
0.2821 	5.98131e-07
0.2828 	4.53829e-07
0.2835 	3.09526e-07
0.2842 	1.65223e-07
0.2849 	2.09197e-08
0.2856 	2.83758e-10
0.2863 	2.38665e-10
0.287 	1.93515e-10
0.2877 	1.48364e-10
0.2884 	1.03213e-10
0.2891 	5.80626e-11
0.2898 	1.2912e-11
0.2905 	1.55899e-14
0.2912 	1.31683e-14
0.2919 	1.07429e-14
0.2926 	8.31728e-15
0.2933 	5.89161e-15
0.294 	3.46594e-15
0.2947 	1.04028e-15
0.2954 	9.25679e-19
0.2961 	7.85057e-19
0.2968 	6.44207e-19
0.2975 	5.03296e-19
0.2982 	3.62384e-19
0.2989 	2.21472e-19
0.2996 	8.05606e-20
0.3003 	5.38803e-23
0.301 	4.58714e-23
0.3017 	3.785e-23
0.3024 	2.98217e-23
0.3031 	2.17934e-23
0.3038 	1.3765e-23
0.3045 	5.73671e-24
0.3052 	3.08414e-27
0.3059 	2.63536e-27
0.3066 	2.18596e-27
0.3073 	1.73593e-27
0.308 	1.28591e-27
0.3087 	8.35882e-28
0.3094 	3.85856e-28
0.3101 	1.7404e-31
0.3108 	1.49237e-31
0.3115 	1.24406e-31
0.3122 	9.95262e-32
0.3129 	7.46463e-32
0.3136 	4.97663e-32
0.3143 	2.48864e-32
0.315 	9.65147e-36
0.3157 	8.30366e-36
0.3164 	6.95496e-36
0.3171 	5.60267e-36
0.3178 	4.25038e-36
0.3185 	2.8981e-36
0.3192 	1.54581e-36
0.3199 	1.93518e-37
0.3206 	4.5059e-40
0.3213 	3.79114e-40
0.322 	3.07393e-40
0.3227 	2.35672e-40
0.3234 	1.63951e-40
0.3241 	9.22296e-41
0.3248 	2.05085e-41
0.3255 	2.36361e-44
0.3262 	1.99717e-44
0.3269 	1.62937e-44
0.3276 	1.26147e-44
0.3283 	8.93562e-45
0.329 	5.25657e-45
0.3297 	1.57753e-45
0.3304 	1.18963e-48
0.3311 	1.00923e-48
0.3318 	8.2823e-49
0.3325 	6.47062e-49
0.3332 	4.65895e-49
0.3339 	2.84728e-49
0.3346 	1.0356e-49
0.3353 	5.7182e-53
0.336 	4.86967e-53
0.3367 	4.01864e-53
0.3374 	3.16624e-53
0.3381 	2.31383e-53
0.3388 	1.46142e-53
0.3395 	6.09017e-54
0.3402 	2.62029e-57
0.3409 	2.23961e-57
0.3416 	1.85801e-57
0.3423 	1.47549e-57
0.343 	1.09297e-57
0.3437 	7.10456e-58
0.3444 	3.27937e-58
0.3451 	1.14518e-61
0.3458 	9.82215e-62
0.3465 	8.18959e-62
0.3472 	6.55172e-62
0.3479 	4.91385e-62
0.3486 	3.27598e-62
0.3493 	1.63812e-62
0.35 	4.78196e-66
0.3507 	4.1151e-66
0.3514 	3.44753e-66
0.3521 	2.77719e-66
0.3528 	2.10686e-66
0.3535 	1.43652e-66
0.3542 	7.66189e-67
0.3549 	9.58546e-68
0.3556 	1.65089e-70
0.3563 	1.38937e-70
0.357 	1.12652e-70
0.3577 	8.63676e-71
0.3584 	6.00828e-71
0.3591 	3.3798e-71
0.3598 	7.51324e-72
0.3605 	6.35682e-75
0.3612 	5.37261e-75
0.3619 	4.38326e-75
0.3626 	3.39352e-75
0.3633 	2.40378e-75
0.364 	1.41403e-75
0.3647 	4.24289e-76
0.3654 	2.35395e-79
0.3661 	1.99742e-79
0.3668 	1.63927e-79
0.3675 	1.28069e-79
0.3682 	9.22108e-80
0.3689 	5.63525e-80
0.3696 	2.04942e-80
0.3703 	8.39481e-84
0.371 	7.15037e-84
0.3717 	5.90123e-84
0.3724 	4.64948e-84
0.3731 	3.39773e-84
0.3738 	2.14598e-84
0.3745 	8.94225e-85
0.3752 	2.88584e-88
0.3759 	2.46695e-88
0.3766 	2.04681e-88
0.3773 	1.62541e-88
0.378 	1.20402e-88
0.3787 	7.82625e-89
0.3794 	3.6123e-89
0.3801 	9.56722e-93
0.3808 	8.20681e-93
0.3815 	6.84345e-93
0.3822 	5.47478e-93
0.3829 	4.10611e-93
0.3836 	2.73744e-93
0.3843 	1.36877e-93
0.385 	3.05944e-97
0.3857 	2.63306e-97
0.3864 	2.20616e-97
0.3871 	1.77719e-97
0.3878 	1.34822e-97
0.3885 	9.19248e-98
0.3892 	4.90279e-98
0.3899 	6.13092e-99
0.3906 	8.14811e-102
0.3913 	6.8581e-102
0.392 	5.56064e-102
0.3927 	4.26317e-102
0.3934 	2.96571e-102
0.3941 	1.66824e-102
0.3948 	3.70777e-103
0.3955 	2.43216e-106
0.3962 	2.0558e-106
0.3969 	1.67725e-106
0.3976 	1.29852e-106
0.3983 	9.19788e-107
0.399 	5.41059e-107
0.3997 	1.6233e-107
0.4004 	7.0037e-111
0.4011 	5.94344e-111
0.4018 	4.87787e-111
0.4025 	3.81085e-111
0.4032 	2.74382e-111
0.4039 	1.6768e-111
0.4046 	6.09771e-112
0.4053 	1.94611e-115
0.406 	1.65776e-115
0.4067 	1.3682e-115
0.4074 	1.07798e-115
0.4081 	7.87754e-116
0.4088 	4.97533e-116
0.4095 	2.07311e-116
0.4102 	5.21993e-120
0.4109 	4.46256e-120
0.4116 	3.70271e-120
0.4123 	2.94039e-120
0.413 	2.17808e-120
0.4137 	1.41576e-120
0.4144 	6.53436e-121
0.4151 	1.35209e-124
0.4158 	1.15991e-124
0.4165 	9.67272e-125
0.4172 	7.73818e-125
0.4179 	5.80365e-125
0.4186 	3.86911e-125
0.4193 	1.93457e-125
0.42 	3.38387e-129
0.4207 	2.91247e-129
0.4214 	2.44043e-129
0.4221 	1.9659e-129
0.4228 	1.49137e-129
0.4235 	1.01685e-129
0.4242 	5.42321e-130
0.4249 	6.77945e-131
0.4256 	7.06863e-134
0.4263 	5.95001e-134
0.427 	4.82433e-134
0.4277 	3.69866e-134
0.4284 	2.57298e-134
0.4291 	1.4473e-134
0.4298 	3.21626e-135
0.4305 	1.65915e-138
0.4312 	1.40254e-138
0.4319 	1.14428e-138
0.4326 	8.8589e-139
0.4333 	6.27504e-139
0.434 	3.69118e-139
0.4347 	1.10732e-139
0.4354 	3.29741e-143
0.4361 	2.64408e-143
0.4368 	2.04674e-143
0.4375 	1.46466e-143
0.4382 	8.82574e-144
0.4389 	3.00493e-144
0.4396 	-2.81588e-144
0.4403 	-5.80881e-144
0.441 	-5.03313e-144
0.4417 	-4.72482e-144
0.4424 	-4.67616e-144
0.4431 	-4.62749e-144
0.4438 	-4.57883e-144
0.4445 	-4.53016e-144
0.4452 	-4.24291e-144
0.4459 	-3.35864e-144
0.4466 	-2.80965e-144
0.4473 	-2.59595e-144
0.448 	-2.38225e-144
0.4487 	-2.16855e-144
0.4494 	-1.95485e-144
0.4501 	-1.71584e-144
0.4508 	-1.32422e-144
0.4515 	-1.0358e-144
0.4522 	-9.33144e-145
0.4529 	-8.30488e-145
0.4536 	-7.27832e-145
0.4543 	-6.25175e-145
0.455 	-5.22543e-145
0.4557 	-4.00611e-145
0.4564 	-2.97654e-145
0.4571 	-2.64316e-145
0.4578 	-2.30978e-145
0.4585 	-1.9764e-145
0.4592 	-1.64302e-145
0.4599 	-1.30964e-145
0.4606 	-1.00162e-145
0.4613 	-7.13289e-146
0.462 	-6.27737e-146
0.4627 	-5.42184e-146
0.4634 	-4.56632e-146
0.4641 	-3.7108e-146
0.4648 	-2.85527e-146
0.4655 	-2.15266e-146
0.4662 	-1.51087e-146
0.4669 	-1.29347e-146
0.4676 	-1.10872e-146
0.4683 	-9.23976e-147
0.469 	-7.39227e-147
0.4697 	-5.54478e-147
0.4704 	-4.07617e-147
0.4711 	-2.89084e-147
0.4718 	-2.36382e-147
0.4725 	-2.01634e-147
0.4732 	-1.66886e-147
0.4739 	-1.32138e-147
0.4746 	-9.73898e-148
0.4753 	-6.9168e-148
0.476 	-4.96268e-148
0.4767 	-3.8908e-148
0.4774 	-3.30905e-148
0.4781 	-2.72729e-148
0.4788 	-2.14554e-148
0.4795 	-1.56379e-148
0.4802 	-1.06505e-148
0.4809 	-7.73329e-149
0.4816 	-5.8346e-149
0.4823 	-4.9544e-149
0.483 	-4.07421e-149
0.4837 	-3.19401e-149
0.4844 	-2.31381e-149
0.4851 	-1.50263e-149
0.4858 	-1.10402e-149
0.4865 	-8.04298e-150
0.4872 	-6.82584e-150
0.4879 	-5.60871e-150
0.4886 	-4.39158e-150
0.4893 	-3.17445e-150
0.49 	-1.95755e-150
0.4907 	-1.45485e-150
0.4914 	-1.02657e-150
0.4921 	-8.71399e-151
0.4928 	-7.1623e-151
0.4935 	-5.6106e-151
0.4942 	-4.05891e-151
0.4949 	-2.50722e-151
0.4956 	-1.78078e-151
0.4963 	-1.22043e-151
0.497 	-1.03677e-151
0.4977 	-8.53098e-152
0.4984 	-6.6943e-152
0.4991 	-4.85761e-152
0.4998 	-3.02093e-152
0.5005 	-2.03545e-152
0.5012 	-1.38987e-152
0.5019 	-1.15524e-152
0.5026 	-9.52217e-153
0.5033 	-7.49198e-153
0.504 	-5.46179e-153
0.5047 	-3.4316e-153
0.5054 	-2.1825e-153
0.5061 	-1.5184e-153
0.5068 	-1.21063e-153
0.5075 	-1.00005e-153
0.5082 	-7.89462e-154
0.5089 	-5.78877e-154
0.5096 	-3.68292e-154
0.5103 	-2.20401e-154
0.511 	-1.55991e-154
0.5117 	-1.19755e-154
0.5124 	-9.9172e-155
0.5131 	-7.85888e-155
0.5138 	-5.80055e-155
0.5145 	-3.74223e-155
0.5152 	-2.10357e-155
0.5159 	-1.51249e-155
0.5166 	-1.12181e-155
0.5173 	-9.31543e-156
0.518 	-7.41275e-156
0.5187 	-5.51007e-156
0.5194 	-3.6074e-156
0.5201 	-1.9034e-156
0.5208 	-1.38856e-156
0.5215 	-9.98002e-157
0.5222 	-8.31141e-157
0.5229 	-6.6428e-157
0.5236 	-4.97418e-157
0.5243 	-3.30557e-157
0.525 	-1.63728e-157
0.5257 	-1.21054e-157
0.5264 	-8.45371e-158
0.5271 	-7.0615e-158
0.5278 	-5.6693e-158
0.5285 	-4.27709e-158
0.5292 	-2.88488e-158
0.5299 	-1.49267e-158
0.5306 	-1.00476e-158
0.5313 	-6.83402e-159
0.532 	-5.72612e-159
0.5327 	-4.61822e-159
0.5334 	-3.51032e-159
0.5341 	-2.40242e-159
0.5348 	-1.29452e-159
0.5355 	-7.95867e-160
0.5362 	-5.40581e-160
0.5369 	-4.44085e-160
0.5376 	-3.59805e-160
0.5383 	-2.75525e-160
0.539 	-1.91244e-160
0.5397 	-1.06964e-160
0.5404 	-6.02908e-161
0.5411 	-4.17918e-161
0.5418 	-3.30022e-161
0.5425 	-2.68608e-161
0.5432 	-2.07193e-161
0.5439 	-1.45778e-161
0.5446 	-8.4363e-162
0.5453 	-4.37671e-162
0.546 	-3.08993e-162
0.5467 	-2.35426e-162
0.5474 	-1.92477e-162
0.5481 	-1.49527e-162
0.5488 	-1.06578e-162
0.5495 	-6.36292e-163
0.5502 	-3.05013e-163
0.5509 	-2.18945e-163
0.5516 	-1.61474e-163
0.5523 	-1.326e-163
0.553 	-1.03725e-163
0.5537 	-7.48505e-164
0.5544 	-4.59758e-164
0.5551 	-2.04403e-164
0.5558 	-1.48963e-164
0.5565 	-1.06647e-164
0.5572 	-8.79554e-165
0.5579 	-6.92637e-165
0.5586 	-5.0572e-165
0.5593 	-3.18803e-165
0.56 	-1.31921e-165
0.5607 	-9.74826e-166
0.5614 	-6.79205e-166
0.5621 	-5.62527e-166
0.5628 	-4.45849e-166
0.5635 	-3.29171e-166
0.5642 	-2.12493e-166
0.5649 	-9.58145e-167
0.5656 	-6.1458e-167
0.5663 	-4.17669e-167
0.567 	-3.4734e-167
0.5677 	-2.77012e-167
0.5684 	-2.06683e-167
0.5691 	-1.36354e-167
0.5698 	-6.60258e-168
0.5705 	-3.73829e-168
0.5712 	-2.53937e-168
0.5719 	-2.07315e-168
0.5726 	-1.6633e-168
0.5733 	-1.25344e-168
0.574 	-8.43589e-169
0.5747 	-4.33735e-169
0.5754 	-2.19688e-169
0.5761 	-1.52346e-169
0.5768 	-1.1975e-169
0.5775 	-9.66292e-170
0.5782 	-7.35086e-170
0.5789 	-5.03879e-170
0.5796 	-2.72672e-170
0.5803 	-1.24891e-170
0.581 	-8.82317e-171
0.5817 	-6.70135e-171
0.5824 	-5.4374e-171
0.5831 	-4.17344e-171
0.5838 	-2.90949e-171
0.5845 	-1.64554e-171
0.5852 	-6.87654e-172
0.5859 	-4.94028e-172
0.5866 	-3.637e-172
0.5873 	-2.96668e-172
0.588 	-2.29636e-172
0.5887 	-1.62604e-172
0.5894 	-9.55726e-173
0.5901 	-3.67118e-173
0.5908 	-2.67799e-173
0.5915 	-1.91621e-173
0.5922 	-1.571e-173
0.5929 	-1.22579e-173
0.5936 	-8.80586e-174
0.5943 	-5.35376e-174
0.595 	-1.90233e-174
0.5957 	-1.40715e-174
0.5964 	-9.81006e-175
0.5971 	-8.08204e-175
0.5978 	-6.35403e-175
0.5985 	-4.62602e-175
0.5992 	-2.898e-175
0.5999 	-1.16999e-175
0.6006 	-7.17553e-176
0.6013 	-4.88443e-176
0.602 	-4.04291e-176
0.6027 	-3.20138e-176
0.6034 	-2.35986e-176
0.6041 	-1.51834e-176
0.6048 	-6.76821e-177
0.6055 	-3.55485e-177
0.6062 	-2.4198e-177
0.6069 	-1.9682e-177
0.6076 	-1.56916e-177
0.6083 	-1.17013e-177
0.609 	-7.71099e-178
0.6097 	-3.72066e-178
0.6104 	-1.71272e-178
0.6111 	-1.19013e-178
0.6118 	-9.33266e-179
0.6125 	-7.48877e-179
0.6132 	-5.64489e-179
0.6139 	-3.801e-179
0.6146 	-1.95712e-179
0.6153 	-8.03275e-180
0.616 	-5.686e-180
0.6167 	-4.31368e-180
0.6174 	-3.48272e-180
0.6181 	-2.65176e-180
0.6188 	-1.82079e-180
0.6195 	-9.89831e-181
0.6202 	-3.67069e-181
0.6209 	-2.64209e-181
0.6216 	-1.94504e-181
0.6223 	-1.57955e-181
0.623 	-1.21405e-181
0.6237 	-8.48561e-182
0.6244 	-4.83068e-182
0.6251 	-1.63573e-182
0.6258 	-1.19535e-182
0.6265 	-8.56179e-183
0.6272 	-6.99165e-183
0.6279 	-5.4215e-183
0.6286 	-3.85136e-183
0.6293 	-2.28121e-183
0.63 	-7.11371e-184
0.6307 	-5.27107e-184
0.6314 	-3.68185e-184
0.6321 	-3.02257e-184
0.6328 	-2.36329e-184
0.6335 	-1.70402e-184
0.6342 	-1.04474e-184
0.6349 	-3.85462e-185
0.6356 	-2.2676e-185
0.6363 	-1.54785e-185
0.637 	-1.27711e-185
0.6377 	-1.00637e-185
0.6384 	-7.35623e-186
0.6391 	-4.64881e-186
0.6398 	-1.94138e-186
0.6405 	-9.52548e-187
0.6412 	-6.50375e-187
0.6419 	-5.27749e-187
0.6426 	-4.18935e-187
0.6433 	-3.1012e-187
0.644 	-2.01305e-187
0.6447 	-9.24908e-188
0.6454 	-3.91039e-188
0.6461 	-2.72487e-188
0.6468 	-2.13432e-188
0.6475 	-1.70604e-188
0.6482 	-1.27775e-188
0.6489 	-8.49468e-189
0.6496 	-4.21183e-189
0.6503 	-1.57003e-189
0.651 	-1.11425e-189
0.6517 	-8.4528e-190
0.6524 	-6.801e-190
0.6531 	-5.1492e-190
0.6538 	-3.4974e-190
0.6545 	-1.8456e-190
0.6552 	-6.16985e-191
0.6559 	-4.45169e-191
0.6566 	-3.2803e-191
0.6573 	-2.65568e-191
0.658 	-2.03106e-191
0.6587 	-1.40644e-191
0.6594 	-7.81818e-192
0.6601 	-2.37478e-192
0.6608 	-1.73936e-192
0.6615 	-1.24812e-192
0.6622 	-1.0164e-192
0.6629 	-7.84686e-193
0.6636 	-5.52971e-193
0.6643 	-3.21255e-193
0.665 	-8.95841e-194
0.6657 	-6.65196e-194
0.6664 	-4.65874e-194
0.6671 	-3.81501e-194
0.6678 	-2.97127e-194
0.6685 	-2.12753e-194
0.6692 	-1.28379e-194
0.6699 	-4.40054e-195
0.6706 	-2.49201e-195
0.6713 	-1.70681e-195
0.672 	-1.4051e-195
0.6727 	-1.10338e-195
0.6734 	-8.01668e-196
0.6741 	-4.99952e-196
0.6748 	-1.98237e-196
0.6755 	-9.15167e-197
0.6762 	-6.27083e-197
0.6769 	-5.08071e-197
0.6776 	-4.02065e-197
0.6783 	-2.96058e-197
0.679 	-1.90052e-197
0.6797 	-8.40455e-198
0.6804 	-3.29671e-198
0.6811 	-2.30471e-198
0.6818 	-1.80449e-198
0.6825 	-1.43839e-198
0.6832 	-1.07228e-198
0.6839 	-7.06182e-199
0.6846 	-3.4008e-199
0.6853 	-1.16556e-199
0.686 	-8.29656e-200
0.6867 	-6.29763e-200
0.6874 	-5.05433e-200
0.6881 	-3.81103e-200
0.6888 	-2.56773e-200
0.6895 	-1.32443e-200
0.6902 	-4.04643e-201
0.6909 	-2.92756e-201
0.6916 	-2.16046e-201
0.6923 	-1.74513e-201
0.693 	-1.3298e-201
0.6937 	-9.14471e-202
0.6944 	-4.99143e-202
0.6951 	-1.38156e-202
0.6958 	-1.02633e-202
0.6965 	-7.50742e-203
0.6972 	-6.18514e-203
0.6979 	-4.86285e-203
0.6986 	-3.54057e-203
0.6993 	-2.21828e-203
0.7 	-8.96262e-204
