0 	1
0.0007 	1
0.0014 	1
0.0021 	1
0.0028 	1
0.0035 	1
0.0042 	1
0.0049 	1
0.0056 	1
0.0063 	1
0.007 	1
0.0077 	1
0.0084 	1
0.0091 	1
0.0098 	1
0.0105 	1
0.0112 	1
0.0119 	1
0.0126 	1
0.0133 	1
0.014 	1
0.0147 	1
0.0154 	1
0.0161 	1
0.0168 	1
0.0175 	1
0.0182 	1
0.0189 	1
0.0196 	1
0.0203 	1
0.021 	1
0.0217 	1
0.0224 	1
0.0231 	1
0.0238 	1
0.0245 	1
0.0252 	1
0.0259 	1
0.0266 	1
0.0273 	1
0.0287 	1
0.0294 	1
0.0301 	1
0.0308 	1
0.0315 	1
0.0322 	1
0.0329 	1
0.0336 	1
0.0343 	1
0.035 	1
0.0357 	1
0.0364 	1
0.0371 	1
0.0385 	1
0.0392 	1
0.0399 	1
0.0406 	1
0.0413 	1
0.042 	1
0.0427 	1
0.0434 	1
0.0441 	1
0.0448 	1
0.0455 	1
0.0462 	1
0.0469 	1
0.0476 	1
0.0483 	1
0.049 	1
0.0497 	1
0.0504 	1
0.0511 	1
0.0518 	1
0.0525 	1
0.0532 	1
0.0539 	1
0.0546 	1
0.0553 	1
0.056 	1
0.0567 	1
0.0574 	1
0.0581 	1
0.0588 	1
0.0595 	1
0.0602 	1
0.0609 	1
0.0616 	1
0.0623 	1
0.063 	1
0.0637 	1
0.0644 	1
0.0651 	1
0.0658 	1
0.0665 	1
0.0672 	1
0.0679 	1
0.0686 	1
0.0693 	1
0.07 	1
0.0707 	1
0.0714 	1
0.0728 	1
0.0735 	1
0.0742 	1
0.0749 	1
0.0756 	1
0.0763 	1
0.077 	1
0.0777 	1
0.0784 	1
0.0791 	1
0.0798 	1
0.0805 	1
0.0812 	1
0.0819 	1
0.0826 	1
0.0833 	1
0.084 	1
0.0847 	1
0.0854 	1
0.0861 	1
0.0868 	1
0.0882 	1
0.0889 	1
0.0896 	1
0.0903 	1
0.091 	1
0.0917 	1
0.0924 	1
0.0931 	1
0.0938 	1
0.0945 	1
0.0952 	1
0.0959 	1
0.0966 	1
0.0973 	1
0.098 	1
0.0987 	1
0.0994 	1
0.1001 	1
0.1008 	1
0.1015 	1
0.1022 	1
0.1029 	1
0.1036 	1
0.1043 	1
0.105 	1
0.1057 	1
0.1064 	1
0.1071 	1
0.1078 	1
0.1085 	1
0.1092 	1
0.1099 	1
0.1106 	1
0.1113 	1
0.112 	1
0.1127 	1
0.1134 	1
0.1141 	1
0.1148 	1
0.1155 	1
0.1162 	1
0.1169 	1
0.1183 	1
0.119 	1
0.1197 	1
0.1204 	1
0.1211 	1
0.1218 	1
0.1232 	1
0.1239 	1
0.1246 	1
0.1253 	1
0.126 	1
0.1267 	1
0.1274 	1
0.1281 	1
0.1288 	1
0.1295 	1
0.1302 	1
0.1309 	1
0.1316 	1
0.1323 	1
0.133 	1
0.1337 	1
0.1344 	1
0.1351 	1
0.1358 	1
0.1365 	1
0.1372 	1
0.1379 	1
0.1386 	1
0.1393 	1
0.14 	1
0.1407 	1
0.1414 	1
0.1421 	1
0.1428 	1
0.1435 	1
0.1442 	1
0.1449 	1
0.1456 	1
0.1463 	1
0.147 	1
0.1477 	1
0.1484 	1
0.1491 	1
0.1498 	1
0.1505 	1
0.1512 	1
0.1519 	1
0.1526 	1
0.1533 	1
0.154 	1
0.1547 	1
0.1554 	1
0.1561 	1
0.1568 	1
0.1575 	1
0.1582 	1
0.1589 	1
0.1596 	1
0.1603 	1
0.161 	1
0.1617 	1
0.1624 	1
0.1631 	1
0.1638 	1
0.1645 	1
0.1652 	1
0.1659 	1
0.1666 	1
0.1673 	1
0.1687 	1
0.1694 	1
0.1701 	1
0.1708 	1
0.1715 	1
0.1722 	1
0.1729 	1
0.1736 	1
0.1743 	1
0.175 	1
0.1757 	1
0.1764 	1
0.1771 	1
0.1778 	1
0.1785 	1
0.1792 	1
0.1799 	1
0.1806 	1
0.1813 	1
0.182 	1
0.1827 	1
0.1834 	1
0.1841 	1
0.1848 	1
0.1855 	1
0.1862 	1
0.1869 	1
0.1876 	1
0.1883 	1
0.189 	1
0.1897 	1
0.1904 	1
0.1911 	1
0.1918 	1
0.1925 	1
0.1932 	1
0.1939 	1
0.1946 	1
0.1953 	1
0.196 	1
0.1967 	1
0.1974 	1
0.1981 	1
0.1988 	1
0.1995 	1
0.2002 	1
0.2009 	1
0.2016 	1
0.2023 	1
0.203 	1
0.2037 	1
0.2044 	1
0.2051 	1
0.2058 	1
0.2065 	1
0.2072 	1
0.2086 	1
0.2093 	1
0.21 	1
0.2107 	1
0.2114 	1
0.2121 	1
0.2128 	1
0.2135 	1
0.2142 	1
0.2149 	1
0.2156 	1
0.2163 	1
0.217 	1
0.2177 	1
0.2184 	1
0.2191 	1
0.2198 	1
0.2205 	1
0.2212 	1
0.2219 	1
0.2226 	1
0.2233 	1
0.224 	1
0.2247 	1
0.2254 	1
0.2261 	1
0.2268 	1
0.2275 	1
0.2282 	1
0.2289 	1
0.2296 	1
0.2303 	0.999998
0.231 	0.999995
0.2317 	0.999991
0.2324 	0.999988
0.2331 	0.999984
0.2338 	0.999981
0.2345 	0.999977
0.2352 	0.99967
0.2359 	0.998602
0.2366 	0.997534
0.2373 	0.996467
0.238 	0.9954
0.2387 	0.994333
0.2394 	0.993266
0.2401 	0.988808
0.2408 	0.964008
0.2422 	0.914399
0.2429 	0.889592
0.2436 	0.864785
0.2443 	0.839978
0.245 	0.815172
0.2457 	0.747516
0.2471 	0.61221
0.2478 	0.544559
0.2485 	0.476908
0.2492 	0.409257
0.2499 	0.341606
0.2506 	0.293201
0.2513 	0.248006
0.252 	0.202816
0.2527 	0.157627
0.2534 	0.112437
0.2541 	0.0672477
0.2548 	0.0220582
0.2555 	0.00823529
0.2562 	0.00695902
0.2569 	0.00567759
0.2576 	0.00439576
0.2583 	0.00311393
0.259 	0.0018321
0.2597 	0.000550266
0.2604 	8.37167e-07
0.2611 	7.09827e-07
0.2618 	5.82434e-07
0.2625 	4.55027e-07
0.2632 	3.27619e-07
0.2639 	2.00212e-07
0.2646 	7.28043e-08
0.2653 	2.97893e-17
0.266 	2.62364e-17
0.2667 	2.19714e-17
0.2674 	1.73108e-17
0.2681 	1.26502e-17
0.2688 	7.98962e-18
0.2695 	3.32903e-18
0.2702 	3.21834e-23
0.2709 	2.89486e-23
0.2716 	2.47808e-23
0.2723 	1.968e-23
0.273 	1.45792e-23
0.2737 	9.47842e-24
0.2744 	4.37763e-24
0.2751 	5.45182e-27
0.2758 	4.9036e-27
0.2765 	4.24777e-27
0.2772 	3.39825e-27
0.2779 	2.54873e-27
0.2786 	1.69921e-27
0.2793 	8.49694e-28
0.28 	1.74744e-31
0.2807 	1.52754e-31
0.2814 	1.30058e-31
0.2828 	7.94797e-32
0.2835 	5.41908e-32
0.2842 	2.89019e-32
0.2849 	3.61298e-33
0.2856 	2.53411e-37
0.2863 	2.19302e-37
0.287 	1.77812e-37
0.2877 	1.36323e-37
0.2884 	9.48333e-38
0.2891 	5.33439e-38
0.2898 	1.18544e-38
0.2905 	2.75348e-43
0.2912 	2.42186e-43
0.2919 	1.98249e-43
0.2926 	1.53483e-43
0.2933 	1.08717e-43
0.294 	6.39514e-44
0.2947 	1.91856e-44
0.2954 	2.37017e-49
0.2961 	2.10781e-49
0.2968 	1.75069e-49
0.2975 	1.36773e-49
0.2982 	9.84766e-50
0.2989 	6.01802e-50
0.2996 	2.18838e-50
0.3003 	1.76597e-55
0.301 	1.58338e-55
0.3017 	1.33599e-55
0.3024 	1.0526e-55
0.3031 	7.69207e-56
0.3038 	4.85815e-56
0.3045 	2.02424e-56
0.3052 	1.51463e-61
0.3059 	1.36851e-61
0.3066 	1.17455e-61
0.3073 	9.3273e-62
0.308 	6.90911e-62
0.3087 	4.49093e-62
0.3094 	2.07275e-62
0.3101 	1.93176e-67
0.3108 	1.76036e-67
0.3115 	1.54016e-67
0.3122 	1.23213e-67
0.3129 	9.24095e-68
0.3136 	6.16064e-68
0.3143 	3.08034e-68
0.315 	3.03237e-73
0.3157 	2.77919e-73
0.3164 	2.47706e-73
0.3171 	1.99541e-73
0.3178 	1.51376e-73
0.3185 	1.03211e-73
0.3192 	5.50462e-74
0.3199 	6.88127e-75
0.3206 	5.17359e-79
0.3213 	4.68953e-79
0.322 	3.80233e-79
0.3227 	2.91512e-79
0.3234 	2.02791e-79
0.3241 	1.14071e-79
0.3248 	2.53499e-80
0.3255 	1.09429e-84
0.3262 	1.00058e-84
0.3269 	8.21613e-85
0.3276 	6.36088e-85
0.3283 	4.50563e-85
0.329 	2.65038e-85
0.3297 	7.95134e-86
0.3304 	2.54024e-90
0.3311 	2.32623e-90
0.3318 	1.94592e-90
0.3325 	1.52025e-90
0.3332 	1.09458e-90
0.3339 	6.68914e-91
0.3346 	2.43246e-91
0.3353 	6.31473e-96
0.336 	5.78996e-96
0.3367 	4.93024e-96
0.3374 	3.88444e-96
0.3381 	2.83863e-96
0.3388 	1.79283e-96
0.3395 	7.47021e-97
0.3402 	1.65638e-101
0.3409 	1.52039e-101
0.3416 	1.31684e-101
0.3423 	1.04572e-101
0.343 	7.74611e-102
0.3437 	5.03499e-102
0.3444 	2.32386e-102
0.3451 	4.54866e-107
0.3458 	4.17922e-107
0.3465 	3.67894e-107
0.3472 	2.94315e-107
0.3479 	2.20737e-107
0.3486 	1.47158e-107
0.3493 	7.35798e-108
0.35 	1.30429e-112
0.3507 	1.19935e-112
0.3514 	1.07222e-112
0.3521 	8.6373e-113
0.3535 	4.46759e-113
0.3549 	2.97875e-114
0.3556 	3.6022e-118
0.3563 	3.26779e-118
0.357 	2.64956e-118
0.3577 	2.03133e-118
0.3584 	1.4131e-118
0.3591 	7.94876e-119
0.3598 	1.76649e-119
0.3605 	1.14152e-123
0.3612 	1.04304e-123
0.3619 	8.56436e-124
0.3626 	6.63048e-124
0.3633 	4.6966e-124
0.364 	2.76272e-124
0.3647 	8.28845e-125
0.3654 	3.86712e-129
0.3661 	3.53463e-129
0.3668 	2.95542e-129
0.3675 	2.30893e-129
0.3682 	1.66243e-129
0.3689 	1.01594e-129
0.3696 	3.69441e-130
0.3703 	1.42054e-134
0.371 	1.2986e-134
0.3717 	1.10444e-134
0.3724 	8.70169e-135
0.3731 	6.35894e-135
0.3738 	4.01619e-135
0.3752 	5.70263e-140
0.3759 	5.21395e-140
0.3766 	4.50578e-140
0.3773 	3.57813e-140
0.378 	2.65047e-140
0.3787 	1.72281e-140
0.3794 	7.95159e-141
0.3801 	2.49278e-145
0.3808 	2.28009e-145
0.3815 	2.00066e-145
0.3829 	1.20152e-145
0.3836 	8.01956e-146
0.3843 	4.02387e-146
0.385 	2.81782e-148
0.3857 	2.51042e-148
0.3864 	2.18151e-148
0.3871 	1.77376e-148
0.3878 	1.36601e-148
0.3885 	9.58263e-149
0.3899 	1.42765e-149
0.3906 	7.73251e-150
0.3913 	6.86347e-150
0.3927 	4.34057e-150
0.3934 	3.07912e-150
0.3941 	1.81766e-150
0.3948 	5.56213e-151
0.3955 	1.8166e-151
0.3962 	1.61866e-151
0.3969 	1.33407e-151
0.3976 	1.0428e-151
0.3983 	7.51543e-152
0.399 	4.6028e-152
0.3997 	1.69018e-152
0.4004 	4.15611e-153
0.4011 	3.69585e-153
0.4018 	3.08421e-153
0.4025 	2.43129e-153
0.4039 	1.12544e-153
0.4046 	4.72521e-154
0.4053 	9.49457e-155
0.406 	8.44983e-155
0.4067 	7.13309e-155
0.4074 	5.66523e-155
0.4081 	4.19738e-155
0.4088 	2.72952e-155
0.4095 	1.26166e-155
0.4102 	2.0684e-156
0.4109 	1.84619e-156
0.4116 	1.57708e-156
0.4123 	1.2611e-156
0.413 	9.45109e-157
0.4137 	6.29122e-157
0.4144 	3.13135e-157
0.4151 	4.16681e-158
0.4158 	3.73244e-158
0.4165 	3.22812e-158
0.4172 	2.59789e-158
0.4179 	1.96767e-158
0.4186 	1.33745e-158
0.4193 	7.07222e-159
0.42 	7.69982e-160
0.4207 	6.92085e-160
0.4214 	6.06161e-160
0.4221 	4.90806e-160
0.4228 	3.75452e-160
0.4235 	2.60097e-160
0.4242 	1.44743e-160
0.4249 	2.93883e-161
0.4256 	1.18041e-161
0.4263 	1.04683e-161
0.427 	8.52578e-162
0.4277 	6.58326e-162
0.4284 	4.64073e-162
0.4291 	2.6982e-162
0.4298 	7.55667e-163
0.4305 	1.86484e-163
0.4312 	1.66641e-163
0.4319 	1.3709e-163
0.4326 	1.06792e-163
0.4333 	7.64941e-164
0.434 	4.61964e-164
0.4347 	1.58988e-164
0.4354 	2.75038e-165
0.4361 	2.464e-165
0.4368 	2.05608e-165
0.4375 	1.61503e-165
0.4382 	1.17397e-165
0.4389 	7.32918e-166
0.4396 	2.91862e-166
0.4403 	3.81576e-167
0.441 	3.42543e-167
0.4417 	2.89789e-167
0.4424 	2.29413e-167
0.4431 	1.69037e-167
0.4438 	1.08661e-167
0.4445 	4.82849e-168
0.4452 	5.0147e-169
0.4459 	4.50899e-169
0.4466 	3.86484e-169
0.4473 	3.08226e-169
0.448 	2.29967e-169
0.4487 	1.51709e-169
0.4494 	7.34505e-170
0.4501 	6.28236e-171
0.4508 	5.65602e-171
0.4515 	4.90818e-171
0.4529 	2.97509e-171
0.4543 	1.042e-171
0.455 	7.54488e-173
0.4557 	6.79966e-173
0.4564 	5.96901e-173
0.4571 	4.82511e-173
0.4578 	3.6812e-173
0.4585 	2.53729e-173
0.4592 	1.39339e-173
0.4599 	2.49483e-174
0.4606 	7.87361e-175
0.4613 	6.98627e-175
0.462 	5.68251e-175
0.4627 	4.37876e-175
0.4634 	3.075e-175
0.4641 	1.77124e-175
0.4648 	4.6748e-176
0.4655 	8.81901e-177
0.4662 	7.8688e-177
0.4669 	6.4664e-177
0.4676 	5.02922e-177
0.4683 	3.59204e-177
0.469 	2.15486e-177
0.4697 	7.17674e-178
0.4704 	9.58843e-179
0.4711 	8.5638e-179
0.4718 	7.13597e-179
0.4732 	4.06039e-179
0.4739 	2.5226e-179
0.4746 	9.84816e-180
0.4753 	1.01474e-180
0.476 	9.0727e-181
0.4767 	7.65915e-181
0.4774 	6.05737e-181
0.4781 	4.45558e-181
0.4788 	2.8538e-181
0.4795 	1.25201e-181
0.4802 	1.04745e-182
0.4809 	9.37631e-183
0.4816 	8.01333e-183
0.483 	4.75785e-183
0.4837 	3.13012e-183
0.4844 	1.50238e-183
0.4851 	1.05609e-184
0.4858 	9.46633e-185
0.4865 	8.18543e-185
0.4872 	6.56916e-185
0.4879 	4.9529e-185
0.4886 	3.33663e-185
0.4893 	1.72036e-185
0.49 	1.04098e-186
0.4907 	9.34493e-187
0.4914 	8.17184e-187
0.4921 	6.60211e-187
0.4935 	3.46264e-187
0.4942 	1.8929e-187
0.4949 	3.23166e-188
0.4956 	9.02452e-189
0.4963 	7.97838e-189
0.497 	6.48636e-189
0.4977 	4.99434e-189
0.4984 	3.50232e-189
0.4991 	2.01029e-189
0.4998 	5.18274e-190
0.5005 	8.52726e-191
0.5012 	7.58796e-191
0.5019 	6.23176e-191
0.5026 	4.84349e-191
0.5033 	3.45522e-191
0.504 	2.06695e-191
0.5047 	6.78681e-192
0.5054 	7.88389e-193
0.5061 	7.03177e-193
0.5068 	5.85556e-193
0.5075 	4.59097e-193
0.5082 	3.32637e-193
0.5089 	2.06178e-193
0.5096 	7.97181e-194
0.5103 	7.13164e-195
0.511 	6.37604e-195
0.5117 	5.38124e-195
0.5124 	4.25355e-195
0.5131 	3.12586e-195
0.5138 	1.99817e-195
0.5145 	8.70478e-196
0.5152 	6.31134e-197
0.5159 	5.65631e-197
0.5166 	4.83662e-197
0.5173 	3.85225e-197
0.518 	2.86789e-197
0.5187 	1.88353e-197
0.5194 	8.99171e-198
0.5201 	5.46402e-199
0.5208 	4.90876e-199
0.5215 	4.25144e-199
0.5229 	2.56938e-199
0.5243 	8.8731e-200
0.525 	4.6276e-201
0.5257 	4.16726e-201
0.5264 	3.65486e-201
0.5271 	2.95154e-201
0.5278 	2.24823e-201
0.5285 	1.54491e-201
0.5292 	8.41597e-202
0.5299 	1.38282e-202
0.5306 	3.46082e-203
0.5313 	3.07302e-203
0.532 	2.49736e-203
0.5327 	1.9217e-203
0.5334 	1.34603e-203
0.5341 	7.70372e-204
0.5348 	1.9471e-204
0.5355 	2.81184e-205
0.5362 	2.51555e-205
0.5369 	2.06613e-205
0.5383 	1.14373e-205
0.539 	6.82526e-206
0.5397 	2.21326e-206
0.5404 	2.23532e-207
0.5411 	2.00518e-207
0.5418 	1.67166e-207
0.5425 	1.30996e-207
0.5432 	9.48247e-208
0.5439 	5.86539e-208
0.5446 	2.2483e-208
0.5453 	1.73899e-209
0.546 	1.56399e-209
0.5467 	1.32294e-209
0.5474 	1.04521e-209
0.5481 	7.67469e-210
0.5488 	4.89733e-210
0.5495 	2.11997e-210
0.5502 	1.32419e-211
0.5509 	1.19387e-211
0.5516 	1.0243e-211
0.5523 	8.15473e-212
0.553 	6.06649e-212
0.5537 	3.97824e-212
0.5544 	1.89e-212
0.5551 	9.87166e-214
0.5558 	8.92108e-214
0.5565 	7.76079e-214
0.5572 	6.22305e-214
0.5579 	4.6853e-214
0.5586 	3.14756e-214
0.5593 	1.60981e-214
0.56 	7.20638e-216
0.5607 	6.52702e-216
0.5614 	5.75553e-216
0.5621 	4.64629e-216
0.5628 	3.53704e-216
0.5635 	2.4278e-216
0.5642 	1.31855e-216
0.5649 	2.0931e-217
0.5656 	4.67683e-218
0.5663 	4.17898e-218
0.567 	3.39502e-218
0.5677 	2.61105e-218
0.5684 	1.82708e-218
0.5691 	1.04312e-218
0.5698 	2.59151e-219
0.5705 	3.2827e-220
0.5712 	2.95599e-220
0.5719 	2.42846e-220
0.5726 	1.88548e-220
0.5733 	1.3425e-220
0.574 	7.99518e-221
0.5747 	2.56539e-221
0.5754 	2.25764e-222
0.5761 	2.0377e-222
0.5768 	1.70094e-222
0.5775 	1.33233e-222
0.5782 	9.6371e-223
0.5789 	5.95094e-223
0.5796 	2.26477e-223
0.5803 	1.52168e-224
0.581 	1.37647e-224
0.5817 	1.1669e-224
0.5824 	9.21563e-225
0.5831 	6.76229e-225
0.5838 	4.30895e-225
0.5845 	1.85561e-225
0.5852 	1.00539e-226
0.5859 	9.11346e-227
0.5866 	7.84271e-227
0.5873 	6.24162e-227
0.588 	4.64053e-227
0.5887 	3.03944e-227
0.5894 	1.43835e-227
0.5901 	6.5129e-229
0.5908 	5.91539e-229
0.5915 	5.16529e-229
0.5922 	4.1405e-229
0.5929 	3.11572e-229
0.5936 	2.09094e-229
0.5943 	1.06616e-229
0.595 	4.13748e-231
0.5957 	3.76494e-231
0.5971 	2.69097e-231
0.5985 	1.40417e-231
0.5992 	7.6077e-232
0.5999 	1.1737e-232
0.6006 	2.35014e-233
0.6013 	2.11017e-233
0.602 	1.71385e-233
0.6027 	1.31754e-233
0.6034 	9.21227e-234
0.6041 	5.24914e-234
0.6048 	1.28601e-234
0.6055 	1.43904e-235
0.6062 	1.30212e-235
0.6076 	8.30376e-236
0.6083 	5.90839e-236
0.609 	3.51302e-236
0.6097 	1.11765e-236
0.6104 	8.64502e-238
0.6111 	7.83768e-238
0.6118 	6.5483e-238
0.6125 	5.12744e-238
0.6132 	3.70659e-238
0.6139 	2.28574e-238
0.6146 	8.64882e-239
0.6153 	5.09623e-240
0.616 	4.62881e-240
0.6167 	3.93008e-240
0.6174 	3.10284e-240
0.6181 	2.2756e-240
0.6188 	1.44837e-240
0.6195 	6.21127e-241
0.6202 	2.9484e-242
0.6209 	2.68266e-242
0.6216 	2.31339e-242
0.6223 	1.8406e-242
0.623 	1.3678e-242
0.6237 	8.95004e-243
0.6244 	4.22209e-243
0.6251 	1.67433e-244
0.6258 	1.52595e-244
0.6265 	1.33582e-244
0.6272 	1.07052e-244
0.6279 	8.05225e-245
0.6286 	5.39928e-245
0.6293 	2.74631e-245
0.63 	9.33398e-247
0.6307 	8.5203e-247
0.6314 	7.56776e-247
0.6321 	6.10607e-247
0.6328 	4.64437e-247
0.6335 	3.18267e-247
0.6342 	1.72097e-247
0.6349 	2.59276e-248
0.6356 	4.67052e-249
0.6363 	4.20702e-249
0.637 	3.41617e-249
0.6377 	2.62531e-249
0.6384 	1.83446e-249
0.6391 	1.04361e-249
0.6398 	2.52752e-250
0.6405 	2.51375e-251
0.6412 	2.2818e-251
0.6419 	1.87501e-251
0.6426 	1.45478e-251
0.6433 	1.03454e-251
0.644 	6.14309e-252
0.6447 	1.94075e-252
0.6454 	1.32854e-253
0.6461 	1.20795e-253
0.6468 	1.00978e-253
0.6475 	7.90457e-254
0.6482 	5.71134e-254
0.6489 	3.5181e-254
0.6496 	1.32487e-254
0.6503 	6.89548e-256
0.651 	6.2795e-256
0.6517 	5.33669e-256
0.6531 	3.08793e-256
0.6538 	1.96354e-256
0.6545 	8.39164e-257
0.6552 	3.51509e-258
0.6559 	3.20592e-258
0.6566 	2.76821e-258
0.6573 	2.20195e-258
0.658 	1.63569e-258
0.6587 	1.06944e-258
0.6594 	5.03181e-259
0.6601 	1.76007e-260
0.6608 	1.60758e-260
0.6615 	1.40949e-260
0.6622 	1.12933e-260
0.6636 	5.68992e-261
0.6643 	2.88825e-261
0.665 	8.65721e-263
0.6657 	7.91813e-263
0.6664 	7.04559e-263
0.6671 	5.68365e-263
0.6678 	4.32171e-263
0.6685 	2.95977e-263
0.6692 	1.59783e-263
0.6699 	2.35893e-264
0.6706 	3.83125e-265
0.6713 	3.45788e-265
0.672 	2.80736e-265
0.6727 	2.15683e-265
0.6734 	1.5063e-265
0.6741 	8.55779e-266
0.6748 	2.05254e-266
0.6755 	1.82121e-267
0.6762 	1.6564e-267
0.6769 	1.36111e-267
0.6783 	7.50452e-268
0.679 	4.45123e-268
0.6797 	1.39795e-268
0.6804 	8.50593e-270
0.6811 	7.74755e-270
0.6818 	6.47851e-270
0.6825 	5.0702e-270
0.6832 	3.66189e-270
0.6839 	2.25357e-270
0.6846 	8.45257e-271
0.6853 	3.90355e-272
0.686 	3.56054e-272
0.6867 	3.02764e-272
0.6874 	2.38924e-272
0.6881 	1.75084e-272
0.6888 	1.11244e-272
0.6895 	4.74039e-273
0.6902 	1.76042e-274
0.6909 	1.60791e-274
0.6916 	1.38944e-274
0.6923 	1.105e-274
0.693 	8.20569e-275
0.6937 	5.36134e-275
0.6944 	2.51699e-275
0.6951 	7.80301e-277
0.6958 	7.13921e-277
0.6972 	5.02914e-277
0.6979 	3.78878e-277
0.6986 	2.54842e-277
0.6993 	1.30806e-277
0.7 	6.76979e-279
