0 	1
0.0007 	1
0.0014 	1
0.0021 	1
0.0028 	1
0.0035 	1
0.0042 	1
0.0049 	1
0.0056 	1
0.0063 	1
0.007 	1
0.0077 	1
0.0084 	1
0.0091 	1
0.0098 	1
0.0105 	1
0.0112 	1
0.0119 	1
0.0126 	1
0.0133 	1
0.014 	1
0.0147 	1
0.0154 	1
0.0161 	1
0.0168 	1
0.0175 	1
0.0182 	1
0.0189 	1
0.0196 	1
0.0203 	1
0.021 	1
0.0217 	1
0.0224 	1
0.0231 	1
0.0238 	1
0.0245 	1
0.0252 	1
0.0259 	1
0.0266 	1
0.0273 	1
0.028 	1
0.0287 	1
0.0294 	1
0.0301 	1
0.0308 	1
0.0315 	1
0.0322 	1
0.0329 	1
0.0336 	1
0.0343 	1
0.035 	1
0.0357 	1
0.0364 	1
0.0371 	1
0.0378 	1
0.0385 	1
0.0392 	1
0.0399 	1
0.0406 	1
0.0413 	1
0.042 	1
0.0427 	1
0.0434 	1
0.0441 	1
0.0448 	1
0.0455 	1
0.0462 	1
0.0469 	1
0.0476 	1
0.0483 	1
0.049 	1
0.0497 	1
0.0504 	1
0.0511 	1
0.0518 	1
0.0525 	1
0.0532 	1
0.0539 	1
0.0546 	1
0.0553 	1
0.056 	1
0.0567 	1
0.0574 	1
0.0581 	1
0.0588 	1
0.0595 	1
0.0602 	1
0.0609 	1
0.0616 	1
0.0623 	1
0.063 	1
0.0637 	1
0.0644 	1
0.0651 	1
0.0658 	1
0.0665 	1
0.0672 	1
0.0679 	1
0.0686 	1
0.0693 	1
0.07 	1
0.0707 	1
0.0714 	1
0.0721 	1
0.0728 	1
0.0735 	1
0.0742 	1
0.0749 	1
0.0756 	1
0.0763 	1
0.077 	1
0.0777 	1
0.0784 	1
0.0791 	1
0.0798 	1
0.0805 	1
0.0812 	1
0.0819 	1
0.0826 	1
0.0833 	1
0.084 	1
0.0847 	1
0.0854 	1
0.0861 	1
0.0868 	1
0.0875 	1
0.0882 	1
0.0889 	1
0.0896 	1
0.0903 	1
0.091 	1
0.0917 	1
0.0924 	1
0.0931 	1
0.0938 	1
0.0945 	1
0.0952 	1
0.0959 	1
0.0966 	1
0.0973 	1
0.098 	1
0.0987 	1
0.0994 	1
0.1001 	1
0.1008 	1
0.1015 	1
0.1022 	1
0.1029 	1
0.1036 	1
0.1043 	1
0.105 	1
0.1057 	1
0.1064 	1
0.1071 	1
0.1078 	1
0.1085 	1
0.1092 	1
0.1099 	1
0.1106 	1
0.1113 	1
0.112 	1
0.1127 	1
0.1134 	1
0.1141 	1
0.1148 	1
0.1155 	1
0.1162 	1
0.1169 	1
0.1176 	1
0.1183 	1
0.119 	1
0.1197 	1
0.1204 	1
0.1211 	1
0.1218 	1
0.1225 	1
0.1232 	1
0.1239 	1
0.1246 	1
0.1253 	1
0.126 	1
0.1267 	1
0.1274 	1
0.1281 	1
0.1288 	1
0.1295 	1
0.1302 	1
0.1309 	1
0.1316 	1
0.1323 	1
0.133 	1
0.1337 	1
0.1344 	1
0.1351 	1
0.1358 	1
0.1365 	1
0.1372 	1
0.1379 	1
0.1386 	1
0.1393 	1
0.14 	1
0.1407 	1
0.1414 	1
0.1421 	1
0.1428 	1
0.1435 	1
0.1442 	1
0.1449 	1
0.1456 	1
0.1463 	1
0.147 	1
0.1477 	1
0.1484 	1
0.1491 	1
0.1498 	1
0.1505 	1
0.1512 	1
0.1519 	1
0.1526 	1
0.1533 	1
0.154 	1
0.1547 	1
0.1554 	1
0.1561 	1
0.1568 	1
0.1575 	1
0.1582 	1
0.1589 	1
0.1596 	1
0.1603 	1
0.161 	1
0.1617 	1
0.1624 	1
0.1631 	1
0.1638 	1
0.1645 	1
0.1652 	1
0.1659 	1
0.1666 	1
0.1673 	1
0.168 	1
0.1687 	1
0.1694 	1
0.1701 	1
0.1708 	1
0.1715 	1
0.1722 	1
0.1729 	1
0.1736 	1
0.1743 	1
0.175 	1
0.1757 	1
0.1764 	1
0.1771 	1
0.1778 	1
0.1785 	1
0.1792 	1
0.1799 	1
0.1806 	1
0.1813 	1
0.182 	1
0.1827 	1
0.1834 	1
0.1841 	1
0.1848 	1
0.1855 	1
0.1862 	1
0.1869 	1
0.1876 	1
0.1883 	1
0.189 	1
0.1897 	1
0.1904 	1
0.1911 	1
0.1918 	1
0.1925 	1
0.1932 	1
0.1939 	1
0.1946 	1
0.1953 	1
0.196 	1
0.1967 	1
0.1974 	1
0.1981 	1
0.1988 	1
0.1995 	1
0.2002 	1
0.2009 	1
0.2016 	1
0.2023 	1
0.203 	1
0.2037 	1
0.2044 	1
0.2051 	1
0.2058 	1
0.2065 	1
0.2072 	1
0.2079 	1
0.2086 	1
0.2093 	1
0.21 	1
0.2107 	1
0.2114 	1
0.2121 	1
0.2128 	1
0.2135 	1
0.2142 	1
0.2149 	1
0.2156 	1
0.2163 	1
0.217 	1
0.2177 	1
0.2184 	1
0.2191 	1
0.2198 	1
0.2205 	1
0.2212 	1
0.2219 	1
0.2226 	1
0.2233 	1
0.224 	1
0.2247 	1
0.2254 	1
0.2261 	1
0.2268 	1
0.2275 	1
0.2282 	1
0.2289 	1
0.2296 	1
0.2303 	1
0.231 	1
0.2317 	1
0.2324 	1
0.2331 	1
0.2338 	1
0.2345 	1
0.2352 	1
0.2359 	0.999999
0.2366 	0.999998
0.2373 	0.999998
0.238 	0.999997
0.2387 	0.999996
0.2394 	0.999995
0.2401 	0.999993
0.2408 	0.999988
0.2415 	0.999977
0.2422 	0.999966
0.2429 	0.999954
0.2436 	0.999943
0.2443 	0.999932
0.245 	0.999908
0.2457 	0.999844
0.2464 	0.999659
0.2471 	0.999473
0.2478 	0.999288
0.2485 	0.999102
0.2492 	0.998916
0.2499 	0.998538
0.2506 	0.997594
0.2513 	0.991961
0.252 	0.986319
0.2527 	0.980678
0.2534 	0.975037
0.2541 	0.969395
0.2548 	0.959155
0.2555 	0.9455
0.2562 	0.901634
0.2569 	0.856477
0.2576 	0.811318
0.2583 	0.766159
0.259 	0.721001
0.2597 	0.663069
0.2604 	0.578996
0.2611 	0.512795
0.2618 	0.450468
0.2625 	0.388142
0.2632 	0.325816
0.2639 	0.26349
0.2646 	0.205662
0.2653 	0.167428
0.266 	0.138013
0.2667 	0.113379
0.2674 	0.0887524
0.2681 	0.0641255
0.2688 	0.0394986
0.2695 	0.0156607
0.2702 	0.0130033
0.2709 	0.0105065
0.2716 	0.00848901
0.2723 	0.00647276
0.273 	0.0044565
0.2737 	0.00244025
0.2744 	0.000423993
0.2751 	0.000181972
0.2758 	0.000147661
0.2765 	0.000119587
0.2772 	9.15435e-05
0.2779 	6.34996e-05
0.2786 	3.54557e-05
0.2793 	7.41172e-06
0.28 	3.05949e-07
0.2807 	2.51127e-07
0.2814 	2.04552e-07
0.2821 	1.58044e-07
0.2828 	1.11535e-07
0.2835 	6.5027e-08
0.2842 	1.85185e-08
0.2849 	4.19575e-11
0.2856 	3.58474e-11
0.2863 	2.93705e-11
0.287 	2.29039e-11
0.2877 	1.64373e-11
0.2884 	9.9707e-12
0.2891 	3.50409e-12
0.2898 	1.6604e-15
0.2905 	1.46152e-15
0.2912 	1.20333e-15
0.2919 	9.4653e-16
0.2926 	6.89757e-16
0.2933 	4.32984e-16
0.294 	1.76211e-16
0.2947 	7.23735e-20
0.2954 	6.5474e-20
0.2961 	5.39946e-20
0.2968 	4.28155e-20
0.2975 	3.16383e-20
0.2982 	2.04612e-20
0.2989 	9.28404e-21
0.2996 	3.3317e-24
0.3003 	3.08477e-24
0.301 	2.54638e-24
0.3017 	2.03453e-24
0.3024 	1.5227e-24
0.3031 	1.01087e-24
0.3038 	4.99041e-25
0.3045 	1.60047e-28
0.3052 	1.51906e-28
0.3059 	1.25518e-28
0.3066 	1.01008e-28
0.3073 	7.64876e-29
0.308 	5.19676e-29
0.3087 	2.74476e-29
0.3094 	2.92753e-30
0.3101 	7.53069e-33
0.3108 	6.23221e-33
0.3115 	5.04933e-33
0.3122 	3.86509e-33
0.3129 	2.68085e-33
0.3136 	1.49661e-33
0.3143 	3.12371e-34
0.315 	3.63893e-37
0.3157 	3.01736e-37
0.3164 	2.4605e-37
0.3171 	1.90233e-37
0.3178 	1.34416e-37
0.3185 	7.85991e-38
0.3192 	2.27822e-38
0.3199 	1.64988e-41
0.3206 	1.40838e-41
0.3213 	1.15557e-41
0.322 	9.01742e-42
0.3227 	6.47913e-42
0.3234 	3.94083e-42
0.3241 	1.40254e-42
0.3248 	7.24571e-46
0.3255 	6.37041e-46
0.3262 	5.25492e-46
0.3269 	4.1365e-46
0.3276 	3.01761e-46
0.3283 	1.89872e-46
0.329 	7.79825e-47
0.3297 	3.11503e-50
0.3304 	2.82795e-50
0.3311 	2.33712e-50
0.3318 	1.855e-50
0.3325 	1.3721e-50
0.3332 	8.892e-51
0.3339 	4.06301e-51
0.3346 	1.32014e-54
0.3353 	1.23686e-54
0.336 	1.02401e-54
0.3367 	8.19173e-55
0.3374 	6.1365e-55
0.3381 	4.08127e-55
0.3388 	2.02605e-55
0.3395 	5.51534e-59
0.3402 	5.33441e-59
0.3409 	4.42432e-59
0.3416 	3.56574e-59
0.3423 	2.70242e-59
0.343 	1.83909e-59
0.3437 	9.75759e-60
0.3444 	1.12431e-60
0.3451 	2.25873e-63
0.3458 	1.87691e-63
0.3465 	1.52343e-63
0.3472 	1.16704e-63
0.3479 	8.10658e-64
0.3486 	4.54272e-64
0.3493 	9.78855e-65
0.35 	9.33272e-68
0.3507 	7.77092e-68
0.3514 	6.35008e-68
0.3521 	4.91311e-68
0.3528 	3.47615e-68
0.3535 	2.03919e-68
0.3542 	6.02226e-69
0.3549 	3.63484e-72
0.3556 	3.12502e-72
0.3563 	2.57011e-72
0.357 	2.00692e-72
0.3577 	1.44374e-72
0.3584 	8.80557e-73
0.3591 	3.17374e-73
0.3598 	1.37077e-76
0.3605 	1.21811e-76
0.3612 	1.00754e-76
0.3619 	7.93739e-77
0.3626 	5.79677e-77
0.3633 	3.65614e-77
0.364 	1.51552e-77
0.3647 	5.00595e-81
0.3654 	4.61477e-81
0.3661 	3.82581e-81
0.3668 	3.0399e-81
0.3675 	2.25081e-81
0.3682 	1.46173e-81
0.3689 	6.72639e-82
0.3696 	1.77283e-85
0.3703 	1.69611e-85
0.371 	1.40945e-85
0.3717 	1.12902e-85
0.3724 	8.46544e-86
0.3731 	5.64068e-86
0.3738 	2.81593e-86
0.3745 	6.09802e-90
0.3752 	6.05768e-90
0.3759 	5.04593e-90
0.3766 	4.07311e-90
0.3773 	3.08958e-90
0.378 	2.10605e-90
0.3787 	1.12253e-90
0.3794 	1.39001e-91
0.3801 	2.10463e-94
0.3808 	1.75736e-94
0.3815 	1.42893e-94
0.3822 	1.09552e-94
0.3829 	7.62109e-95
0.3836 	4.28696e-95
0.3843 	9.52835e-96
0.385 	7.11439e-99
0.3857 	5.95505e-99
0.3864 	4.87587e-99
0.3871 	3.77528e-99
0.3878 	2.67469e-99
0.3885 	1.5741e-99
0.3892 	4.73513e-100
0.3899 	2.26004e-103
0.3906 	1.96217e-103
0.3913 	1.61726e-103
0.392 	1.26374e-103
0.3927 	9.10215e-104
0.3934 	5.56691e-104
0.3941 	2.03167e-104
0.3948 	6.96759e-108
0.3955 	6.27954e-108
0.3962 	5.20642e-108
0.3969 	4.10488e-108
0.3976 	3.00117e-108
0.3983 	1.89745e-108
0.399 	7.93731e-109
0.3997 	2.08192e-112
0.4004 	1.95403e-112
0.4011 	1.62476e-112
0.4018 	1.29236e-112
0.4025 	9.57862e-113
0.4032 	6.23366e-113
0.4039 	2.88869e-113
0.4046 	6.02263e-117
0.4053 	5.89094e-117
0.406 	4.91206e-117
0.4067 	3.93985e-117
0.4074 	2.95686e-117
0.4081 	1.97388e-117
0.4088 	9.90892e-118
0.4095 	7.90681e-120
0.4102 	1.71934e-121
0.4109 	1.43766e-121
0.4116 	1.16226e-121
0.4123 	8.82364e-122
0.413 	6.0247e-122
0.4137 	3.22575e-122
0.4144 	4.26811e-123
0.4151 	4.8563e-126
0.4158 	4.07193e-126
0.4165 	3.31673e-126
0.4172 	2.54484e-126
0.4179 	1.77296e-126
0.4186 	1.00108e-126
0.4193 	2.29197e-127
0.42 	1.32733e-130
0.4207 	1.11598e-130
0.4214 	9.15523e-131
0.4221 	7.09388e-131
0.4228 	5.03253e-131
0.4235 	2.97117e-131
0.4242 	9.09824e-132
0.4249 	3.37975e-135
0.4256 	2.95965e-135
0.4263 	2.44464e-135
0.427 	1.91155e-135
0.4277 	1.37846e-135
0.4284 	8.45375e-136
0.4291 	3.12287e-136
0.4298 	8.32302e-140
0.4305 	7.59613e-140
0.4312 	6.31171e-140
0.4319 	4.98023e-140
0.4326 	3.64513e-140
0.4333 	2.31003e-140
0.434 	9.74937e-141
0.4347 	1.98449e-144
0.4354 	1.89238e-144
0.4361 	1.57807e-144
0.4368 	1.25695e-144
0.4375 	9.33093e-145
0.4382 	6.09241e-145
0.4389 	2.85388e-145
0.4396 	2.12858e-147
0.4403 	1.80629e-147
0.441 	1.57936e-147
0.4417 	1.37357e-147
0.4424 	1.16754e-147
0.4431 	9.61511e-148
0.4438 	7.55483e-148
0.4445 	5.49455e-148
0.4452 	4.81025e-148
0.4459 	4.19665e-148
0.4466 	3.65726e-148
0.4473 	3.11619e-148
0.448 	2.57513e-148
0.4487 	2.03407e-148
0.4494 	1.49301e-148
0.4501 	1.27622e-148
0.4508 	1.10622e-148
0.4515 	9.61988e-149
0.4522 	8.17006e-149
0.4529 	6.72025e-149
0.4536 	5.27043e-149
0.4543 	3.82062e-149
0.455 	3.14138e-149
0.4557 	2.70339e-149
0.4564 	2.34535e-149
0.4571 	1.98457e-149
0.4578 	1.6238e-149
0.4585 	1.26302e-149
0.4592 	9.02249e-150
0.4599 	7.01888e-150
0.4606 	6.0499e-150
0.4613 	5.23963e-150
0.462 	4.42077e-150
0.4627 	3.60191e-150
0.4634 	2.78305e-150
0.4641 	1.96419e-150
0.4648 	1.42714e-150
0.4655 	1.23824e-150
0.4662 	1.07141e-150
0.4669 	9.0255e-151
0.4676 	7.33528e-151
0.4683 	5.64506e-151
0.469 	3.95484e-151
0.4697 	2.65331e-151
0.4704 	2.33913e-151
0.4711 	2.01408e-151
0.4718 	1.69613e-151
0.4725 	1.37717e-151
0.4732 	1.05822e-151
0.4739 	7.39264e-152
0.4746 	4.53831e-152
0.4753 	4.08541e-152
0.476 	3.50048e-152
0.4767 	2.94962e-152
0.4774 	2.39552e-152
0.4781 	1.84141e-152
0.4788 	1.2873e-152
0.4795 	7.33193e-153
0.4802 	6.62148e-153
0.4809 	5.65098e-153
0.4816 	4.76779e-153
0.4823 	3.8765e-153
0.483 	2.98522e-153
0.4837 	2.09393e-153
0.4844 	1.20264e-153
0.4851 	9.99573e-154
0.4858 	8.50397e-154
0.4865 	7.18789e-154
0.4872 	5.85476e-154
0.4879 	4.52163e-154
0.4886 	3.1885e-154
0.4893 	1.85537e-154
0.49 	1.40966e-154
0.4907 	1.19641e-154
0.4914 	1.01351e-154
0.4921 	8.27453e-155
0.4928 	6.41395e-155
0.4935 	4.55337e-155
0.4942 	2.6928e-155
0.4949 	1.82238e-155
0.4956 	1.57746e-155
0.4963 	1.33975e-155
0.497 	1.09676e-155
0.4977 	8.53772e-156
0.4984 	6.10786e-156
0.4991 	3.67799e-156
0.4998 	2.20498e-156
0.5005 	1.95337e-156
0.5012 	1.66318e-156
0.5019 	1.36604e-156
0.5026 	1.06836e-156
0.5033 	7.70688e-157
0.504 	4.73014e-157
0.5047 	2.50237e-157
0.5054 	2.28385e-157
0.5061 	1.94241e-157
0.5068 	1.60158e-157
0.5075 	1.25878e-157
0.5082 	9.15973e-158
0.5089 	5.73169e-158
0.5096 	2.6688e-158
0.5103 	2.51856e-158
0.511 	2.13833e-158
0.5117 	1.77031e-158
0.5124 	1.39851e-158
0.5131 	1.02671e-158
0.5138 	6.5491e-159
0.5145 	2.83109e-159
0.5152 	2.62051e-159
0.5159 	2.2222e-159
0.5166 	1.84751e-159
0.5173 	1.46709e-159
0.518 	1.08666e-159
0.5187 	7.0624e-160
0.5194 	3.25817e-160
0.5201 	2.57625e-160
0.5208 	2.18302e-160
0.5215 	1.82276e-160
0.5222 	1.45499e-160
0.5229 	1.08722e-160
0.5236 	7.19453e-161
0.5243 	3.51685e-161
0.525 	2.39623e-161
0.5257 	2.02976e-161
0.5264 	1.70215e-161
0.5271 	1.36578e-161
0.5278 	1.0294e-161
0.5285 	6.93023e-162
0.5292 	3.56647e-162
0.5299 	2.04529e-162
0.5306 	1.7883e-162
0.5313 	1.50617e-162
0.532 	1.21472e-162
0.5327 	9.23277e-163
0.5334 	6.31829e-163
0.5341 	3.40381e-163
0.5348 	1.65233e-163
0.5355 	1.4945e-163
0.5362 	1.26353e-163
0.5369 	1.02466e-163
0.5376 	7.85182e-164
0.5383 	5.45705e-164
0.539 	3.06228e-164
0.5397 	1.26485e-164
0.5404 	1.18872e-164
0.5411 	1.00583e-164
0.5418 	8.20486e-165
0.5425 	6.33689e-165
0.5432 	4.46892e-165
0.5439 	2.60096e-165
0.5446 	9.1838e-166
0.5453 	8.99196e-166
0.546 	7.60801e-166
0.5467 	6.24177e-166
0.5474 	4.85735e-166
0.5481 	3.47292e-166
0.5488 	2.08849e-166
0.5495 	7.04068e-167
0.5502 	6.46616e-167
0.5509 	5.47227e-167
0.5516 	4.51453e-167
0.5523 	3.53883e-167
0.553 	2.56313e-167
0.5537 	1.58742e-167
0.5544 	6.11721e-168
0.5551 	4.42365e-168
0.5558 	3.74568e-168
0.5565 	3.10657e-168
0.5572 	2.45219e-168
0.5579 	1.7978e-168
0.5586 	1.14342e-168
0.5593 	4.89043e-169
0.56 	2.88108e-169
0.5607 	2.44147e-169
0.5614 	2.03508e-169
0.5621 	1.61716e-169
0.5628 	1.19923e-169
0.5635 	7.8131e-170
0.5642 	3.63387e-170
0.5649 	1.72071e-170
0.5656 	1.51637e-170
0.5663 	1.26988e-170
0.567 	1.01556e-170
0.5677 	7.61243e-171
0.5684 	5.06926e-171
0.5691 	2.52609e-171
0.5698 	9.78518e-172
0.5705 	8.97936e-172
0.5712 	7.54849e-172
0.5719 	6.07631e-172
0.5726 	4.60095e-172
0.5733 	3.12559e-172
0.574 	1.65023e-172
0.5747 	5.30151e-173
0.5754 	5.07989e-173
0.5761 	4.27728e-173
0.5768 	3.46548e-173
0.5775 	2.64913e-173
0.5782 	1.83278e-173
0.5789 	1.01643e-173
0.5796 	2.73806e-174
0.5803 	2.74418e-174
0.581 	2.31264e-174
0.5817 	1.88478e-174
0.5824 	1.45376e-174
0.5831 	1.02274e-174
0.5838 	5.91724e-175
0.5845 	1.60705e-175
0.5852 	1.4147e-175
0.5859 	1.19369e-175
0.5866 	9.77909e-176
0.5873 	7.60679e-176
0.588 	5.43448e-176
0.5887 	3.26218e-176
0.5894 	1.08988e-176
0.5901 	6.96267e-177
0.5908 	5.88449e-177
0.5915 	4.84197e-177
0.5922 	3.79655e-177
0.5929 	2.75113e-177
0.5936 	1.7057e-177
0.5943 	6.60281e-178
0.595 	3.27264e-178
0.5957 	2.77171e-178
0.5964 	2.28854e-178
0.5971 	1.808e-178
0.5978 	1.32745e-178
0.5985 	8.46909e-179
0.5992 	3.66366e-179
0.5999 	1.41021e-179
0.6006 	1.2479e-179
0.6013 	1.0328e-179
0.602 	8.21769e-180
0.6027 	6.10738e-180
0.6034 	3.99706e-180
0.6041 	1.88675e-180
0.6048 	5.80466e-181
0.6055 	5.37242e-181
0.6062 	4.45368e-181
0.6069 	3.56575e-181
0.6076 	2.68018e-181
0.6083 	1.79461e-181
0.609 	9.09049e-182
0.6097 	2.28308e-182
0.6104 	2.21228e-182
0.6111 	1.83691e-182
0.6118 	1.47737e-182
0.6125 	1.12221e-182
0.6132 	7.67049e-183
0.6139 	4.11886e-183
0.6146 	8.58308e-184
0.6153 	8.70862e-184
0.616 	7.24683e-184
0.6167 	5.84587e-184
0.6174 	4.48434e-184
0.6181 	3.12281e-184
0.6188 	1.76128e-184
0.6195 	3.99743e-185
0.6202 	3.27727e-185
0.6209 	2.73565e-185
0.6216 	2.20954e-185
0.6223 	1.71056e-185
0.623 	1.21158e-185
0.6237 	7.12604e-186
0.6244 	2.13625e-186
0.6251 	1.17925e-186
0.6258 	9.88516e-187
0.6265 	7.97848e-187
0.6272 	6.23006e-187
0.6279 	4.48164e-187
0.6286 	2.73322e-187
0.6293 	9.84806e-188
0.63 	4.05796e-188
0.6307 	3.42042e-188
0.6314 	2.75286e-188
0.6321 	2.16702e-188
0.6328 	1.58117e-188
0.6335 	9.95322e-189
0.6342 	4.09476e-189
0.6349 	1.28158e-189
0.6356 	1.13374e-189
0.6363 	9.07794e-190
0.637 	7.20046e-190
0.6377 	5.32297e-190
0.6384 	3.44549e-190
0.6391 	1.568e-190
0.6398 	3.8738e-191
0.6405 	3.60119e-191
0.6412 	2.87275e-191
0.6419 	2.28623e-191
0.6426 	1.71062e-191
0.6433 	1.13501e-191
0.644 	5.59408e-192
0.6447 	1.12108e-192
0.6454 	1.09306e-192
0.6461 	8.74239e-193
0.6468 	6.93907e-193
0.6475 	5.25032e-193
0.6482 	3.56156e-193
0.6489 	1.87281e-193
0.6496 	3.10742e-194
0.6503 	3.16741e-194
0.651 	2.55154e-194
0.6517 	2.01423e-194
0.6524 	1.5399e-194
0.6531 	1.06558e-194
0.6538 	5.91252e-195
0.6545 	1.16927e-195
0.6552 	8.78777e-196
0.6559 	7.14551e-196
0.6566 	5.59497e-196
0.6573 	4.31885e-196
0.658 	3.04273e-196
0.6587 	1.76661e-196
0.6594 	4.90492e-197
0.6601 	2.33544e-197
0.6608 	1.92104e-197
0.6615 	1.4883e-197
0.6622 	1.15921e-197
0.6629 	8.30119e-198
0.6636 	5.01031e-198
0.6643 	1.71943e-198
0.665 	5.94865e-199
0.6657 	4.96032e-199
0.6664 	3.79478e-199
0.6671 	2.98059e-199
0.6678 	2.1664e-199
0.6685 	1.35221e-199
0.6692 	5.38018e-200
0.6699 	1.39708e-200
0.6706 	1.23064e-200
0.6713 	9.28507e-201
0.672 	7.35037e-201
0.6727 	5.41568e-201
0.6734 	3.48098e-201
0.6741 	1.54629e-201
0.6748 	3.1513e-202
0.6755 	2.93473e-202
0.6762 	2.20379e-202
0.6769 	1.74102e-202
0.6776 	1.29888e-202
0.6783 	8.56743e-203
0.679 	4.14603e-203
0.6797 	6.83259e-204
0.6804 	6.68454e-204
0.6811 	5.08464e-204
0.6818 	3.96743e-204
0.6825 	2.9941e-204
0.6832 	2.02077e-204
0.6839 	1.04744e-204
0.6846 	1.42534e-205
0.6853 	1.45418e-205
0.686 	1.13066e-205
0.6867 	8.71449e-206
0.6874 	6.64671e-206
0.6881 	4.57893e-206
0.6888 	2.51116e-206
0.6895 	4.4338e-207
0.6902 	3.04684e-207
0.6909 	2.42419e-207
0.6916 	1.84876e-207
0.6923 	1.424e-207
0.693 	9.99245e-208
0.6937 	5.74487e-208
0.6944 	1.49728e-208
0.6951 	6.1587e-209
0.6958 	5.02649e-209
0.6965 	3.83166e-209
0.6972 	3.00233e-209
0.6979 	2.173e-209
0.6986 	1.34367e-209
0.6993 	5.14346e-210
0.7 	2.36239e-210
