0 	1
0.0007 	1
0.0014 	1
0.0021 	1
0.0028 	1
0.0035 	1
0.0042 	1
0.0049 	1
0.0056 	1
0.0063 	1
0.007 	1
0.0077 	1
0.0084 	1
0.0091 	1
0.0098 	1
0.0105 	1
0.0112 	1
0.0119 	1
0.0126 	1
0.0133 	1
0.014 	1
0.0147 	1
0.0154 	1
0.0161 	1
0.0168 	1
0.0175 	1
0.0182 	1
0.0189 	1
0.0196 	1
0.0203 	1
0.021 	1
0.0217 	1
0.0224 	1
0.0231 	1
0.0238 	1
0.0245 	1
0.0252 	1
0.0259 	1
0.0266 	1
0.0273 	1
0.028 	1
0.0287 	1
0.0294 	1
0.0301 	1
0.0308 	1
0.0315 	1
0.0322 	1
0.0329 	1
0.0336 	1
0.0343 	1
0.035 	1
0.0357 	1
0.0364 	1
0.0371 	1
0.0378 	1
0.0385 	1
0.0392 	1
0.0399 	1
0.0406 	1
0.0413 	1
0.042 	1
0.0427 	1
0.0434 	1
0.0441 	1
0.0448 	1
0.0455 	1
0.0462 	1
0.0469 	1
0.0476 	1
0.0483 	1
0.049 	1
0.0497 	1
0.0504 	1
0.0511 	1
0.0518 	1
0.0525 	1
0.0532 	1
0.0539 	1
0.0546 	1
0.0553 	1
0.056 	1
0.0567 	1
0.0574 	1
0.0581 	1
0.0588 	1
0.0595 	1
0.0602 	1
0.0609 	1
0.0616 	1
0.0623 	1
0.063 	1
0.0637 	1
0.0644 	1
0.0651 	1
0.0658 	1
0.0665 	1
0.0672 	1
0.0679 	1
0.0686 	1
0.0693 	1
0.07 	1
0.0707 	1
0.0714 	1
0.0721 	1
0.0728 	1
0.0735 	1
0.0742 	1
0.0749 	1
0.0756 	1
0.0763 	1
0.077 	1
0.0777 	1
0.0784 	1
0.0791 	1
0.0798 	1
0.0805 	1
0.0812 	1
0.0819 	1
0.0826 	1
0.0833 	1
0.084 	1
0.0847 	1
0.0854 	1
0.0861 	1
0.0868 	1
0.0875 	1
0.0882 	1
0.0889 	1
0.0896 	1
0.0903 	1
0.091 	1
0.0917 	1
0.0924 	1
0.0931 	1
0.0938 	1
0.0945 	1
0.0952 	1
0.0959 	1
0.0966 	1
0.0973 	1
0.098 	1
0.0987 	1
0.0994 	1
0.1001 	1
0.1008 	1
0.1015 	1
0.1022 	1
0.1029 	1
0.1036 	1
0.1043 	1
0.105 	1
0.1057 	1
0.1064 	1
0.1071 	1
0.1078 	1
0.1085 	1
0.1092 	1
0.1099 	1
0.1106 	1
0.1113 	1
0.112 	1
0.1127 	1
0.1134 	1
0.1141 	1
0.1148 	1
0.1155 	1
0.1162 	1
0.1169 	1
0.1176 	1
0.1183 	1
0.119 	1
0.1197 	1
0.1204 	1
0.1211 	1
0.1218 	1
0.1225 	1
0.1232 	1
0.1239 	1
0.1246 	1
0.1253 	1
0.126 	1
0.1267 	1
0.1274 	1
0.1281 	1
0.1288 	1
0.1295 	1
0.1302 	1
0.1309 	1
0.1316 	1
0.1323 	1
0.133 	1
0.1337 	1
0.1344 	1
0.1351 	1
0.1358 	1
0.1365 	1
0.1372 	1
0.1379 	1
0.1386 	1
0.1393 	1
0.14 	1
0.1407 	1
0.1414 	1
0.1421 	1
0.1428 	1
0.1435 	1
0.1442 	1
0.1449 	1
0.1456 	1
0.1463 	1
0.147 	1
0.1477 	1
0.1484 	1
0.1491 	1
0.1498 	1
0.1505 	1
0.1512 	1
0.1519 	1
0.1526 	1
0.1533 	1
0.154 	1
0.1547 	1
0.1554 	1
0.1561 	1
0.1568 	1
0.1575 	1
0.1582 	1
0.1589 	1
0.1596 	1
0.1603 	1
0.161 	1
0.1617 	1
0.1624 	1
0.1631 	1
0.1638 	1
0.1645 	1
0.1652 	1
0.1659 	1
0.1666 	1
0.1673 	1
0.168 	1
0.1687 	1
0.1694 	1
0.1701 	1
0.1708 	1
0.1715 	1
0.1722 	1
0.1729 	1
0.1736 	1
0.1743 	1
0.175 	1
0.1757 	1
0.1764 	1
0.1771 	1
0.1778 	1
0.1785 	1
0.1792 	1
0.1799 	1
0.1806 	1
0.1813 	1
0.182 	1
0.1827 	1
0.1834 	1
0.1841 	1
0.1848 	1
0.1855 	1
0.1862 	1
0.1869 	1
0.1876 	1
0.1883 	1
0.189 	1
0.1897 	1
0.1904 	1
0.1911 	1
0.1918 	1
0.1925 	1
0.1932 	1
0.1939 	1
0.1946 	1
0.1953 	1
0.196 	1
0.1967 	1
0.1974 	1
0.1981 	1
0.1988 	1
0.1995 	1
0.2002 	1
0.2009 	1
0.2016 	1
0.2023 	1
0.203 	1
0.2037 	1
0.2044 	1
0.2051 	1
0.2058 	1
0.2065 	0.999996
0.2072 	0.999984
0.2079 	0.999971
0.2086 	0.999957
0.2093 	0.999935
0.21 	0.999912
0.2107 	0.999889
0.2114 	0.99967
0.2121 	0.998646
0.2128 	0.99749
0.2135 	0.996334
0.2142 	0.99459
0.2149 	0.992517
0.2156 	0.990439
0.2163 	0.987375
0.217 	0.970985
0.2177 	0.953063
0.2184 	0.935141
0.2191 	0.91032
0.2198 	0.8786
0.2205 	0.846766
0.2212 	0.814886
0.2219 	0.758777
0.2226 	0.699541
0.2233 	0.640304
0.224 	0.571807
0.2247 	0.486641
0.2254 	0.400974
0.2261 	0.314931
0.2268 	0.254314
0.2275 	0.202552
0.2282 	0.150855
0.2289 	0.106094
0.2296 	0.0867669
0.2303 	0.0671162
0.231 	0.0470347
0.2317 	0.0326355
0.2324 	0.0227524
0.2331 	0.0131588
0.2338 	0.00419704
0.2345 	0.00345009
0.2352 	0.00269489
0.2359 	0.00191906
0.2366 	0.00131169
0.2373 	0.000922429
0.238 	0.000556388
0.2387 	0.000190347
0.2394 	0.000137604
0.2401 	0.000108783
0.2408 	7.89064e-05
0.2415 	5.34894e-05
0.2422 	3.80295e-05
0.2429 	2.4224e-05
0.2436 	1.04185e-05
0.2443 	6.43288e-06
0.245 	5.12533e-06
0.2457 	3.75989e-06
0.2464 	2.51688e-06
0.2471 	1.78898e-06
0.2478 	1.16241e-06
0.2485 	5.35834e-07
0.2492 	2.76777e-07
0.2499 	2.21893e-07
0.2506 	1.64752e-07
0.2513 	1.08957e-07
0.252 	7.73598e-08
0.2527 	5.11676e-08
0.2534 	2.49755e-08
0.2541 	1.08344e-08
0.2548 	8.74441e-09
0.2555 	6.57515e-09
0.2562 	4.37418e-09
0.2569 	3.05678e-09
0.2576 	2.06509e-09
0.2583 	1.07341e-09
0.259 	4.09103e-10
0.2597 	3.34058e-10
0.2604 	2.56513e-10
0.2611 	1.77092e-10
0.2618 	1.23119e-10
0.2625 	8.68158e-11
0.2632 	5.08891e-11
0.2639 	2.18907e-11
0.2646 	1.82958e-11
0.2653 	1.46255e-11
0.266 	1.08544e-11
0.2667 	8.0264e-12
0.2674 	6.08273e-12
0.2681 	4.21658e-12
0.2688 	2.4549e-12
0.2695 	2.05122e-12
0.2702 	1.64371e-12
0.2709 	1.22666e-12
0.2716 	8.94269e-13
0.2723 	6.72294e-13
0.273 	4.62439e-13
0.2737 	2.52583e-13
0.2744 	1.99309e-13
0.2751 	1.57878e-13
0.2758 	1.1524e-13
0.2765 	7.92102e-14
0.2772 	5.70244e-14
0.2779 	3.65191e-14
0.2786 	1.60138e-14
0.2793 	9.96178e-15
0.28 	7.8515e-15
0.2807 	5.66278e-15
0.2814 	3.68664e-15
0.2821 	2.56148e-15
0.2828 	1.5464e-15
0.2835 	5.31327e-16
0.2842 	1.48846e-16
0.2849 	1.17804e-16
0.2856 	8.57074e-17
0.2863 	5.45102e-17
0.287 	3.78537e-17
0.2877 	2.28958e-17
0.2884 	7.93786e-18
0.2891 	4.16876e-19
0.2898 	3.32769e-19
0.2905 	2.45996e-19
0.2912 	1.58156e-19
0.2919 	1.09902e-19
0.2926 	6.83893e-20
0.2933 	2.68767e-20
0.294 	1.77747e-22
0.2947 	1.4317e-22
0.2954 	1.07553e-22
0.2961 	7.11548e-23
0.2968 	4.87393e-23
0.2975 	3.12409e-23
0.2982 	1.37829e-23
0.2989 	6.33787e-26
0.2996 	5.12505e-26
0.3003 	3.88272e-26
0.301 	2.60101e-26
0.3017 	1.6944e-26
0.3024 	1.10107e-26
0.3031 	5.30533e-27
0.3038 	7.36773e-30
0.3045 	5.99506e-30
0.3052 	4.60346e-30
0.3059 	3.16452e-30
0.3066 	2.06298e-30
0.3073 	1.36903e-30
0.308 	7.08341e-31
0.3087 	4.76524e-32
0.3094 	3.82866e-34
0.3101 	2.97854e-34
0.3108 	2.09629e-34
0.3115 	1.36678e-34
0.3122 	9.30624e-35
0.3129 	5.10458e-35
0.3136 	9.02928e-36
0.3143 	2.20932e-38
0.315 	1.73812e-38
0.3157 	1.24478e-38
0.3164 	8.02715e-39
0.3171 	5.55832e-39
0.3178 	3.20084e-39
0.3185 	8.43355e-40
0.3192 	1.23496e-42
0.3199 	9.78538e-43
0.3206 	7.12849e-43
0.3213 	4.54839e-43
0.322 	3.19314e-43
0.3227 	1.91617e-43
0.3234 	6.39211e-44
0.3241 	6.64262e-47
0.3248 	5.29821e-47
0.3255 	3.91954e-47
0.3262 	2.52715e-47
0.3269 	1.76407e-47
0.3276 	1.09672e-47
0.3283 	4.29376e-48
0.329 	3.42894e-51
0.3297 	2.75225e-51
0.3304 	2.06435e-51
0.3311 	1.36803e-51
0.3318 	9.35641e-52
0.3325 	5.99245e-52
0.3332 	2.63767e-52
0.3339 	1.70674e-55
0.3346 	1.37823e-55
0.3353 	1.04655e-55
0.336 	7.10646e-56
0.3367 	4.79091e-56
0.3374 	3.14263e-56
0.3381 	1.51355e-56
0.3388 	8.23818e-60
0.3395 	6.6918e-60
0.3402 	5.13786e-60
0.3409 	3.56505e-60
0.3416 	2.37319e-60
0.3423 	1.59131e-60
0.343 	8.23274e-61
0.3437 	5.52412e-62
0.3444 	3.16847e-64
0.3451 	2.45699e-64
0.3458 	1.73806e-64
0.3465 	1.14392e-64
0.3472 	7.82939e-65
0.3479 	4.29431e-65
0.3486 	7.59229e-66
0.3493 	1.467e-68
0.35 	1.14791e-68
0.3507 	8.26231e-69
0.3514 	5.38205e-69
0.3521 	3.75638e-69
0.3528 	2.16308e-69
0.3535 	5.69787e-70
0.3542 	6.6459e-73
0.3549 	5.24274e-73
0.3556 	3.83395e-73
0.3563 	2.47365e-73
0.357 	1.75951e-73
0.3577 	1.05584e-73
0.3584 	3.52161e-74
0.3591 	2.94721e-77
0.3598 	2.34317e-77
0.3605 	1.73812e-77
0.3612 	1.13267e-77
0.3619 	8.05273e-78
0.3626 	5.00627e-78
0.3633 	1.95981e-78
0.364 	1.28223e-81
0.3647 	1.02709e-81
0.3654 	7.71801e-82
0.3661 	5.16394e-82
0.3668 	3.60926e-82
0.3675 	2.31416e-82
0.3682 	1.01855e-82
0.3689 	5.48552e-86
0.3696 	4.4254e-86
0.3703 	3.36507e-86
0.371 	2.30446e-86
0.3717 	1.58614e-86
0.3724 	1.04631e-86
0.3731 	5.039e-87
0.3738 	2.31331e-90
0.3745 	1.87888e-90
0.3752 	1.44441e-90
0.3759 	1.00981e-90
0.3766 	6.85197e-91
0.3773 	4.64206e-91
0.378 	2.40152e-91
0.3787 	1.60986e-92
0.3794 	7.8763e-95
0.3801 	6.11697e-95
0.3808 	4.3563e-95
0.3815 	2.91664e-95
0.3822 	2.02649e-95
0.3829 	1.11147e-95
0.3836 	1.96455e-96
0.3843 	3.26543e-99
0.385 	2.56053e-99
0.3857 	1.85421e-99
0.3864 	1.22584e-99
0.3871 	8.72549e-100
0.3878 	5.02441e-100
0.3885 	1.32333e-100
0.3892 	1.33931e-103
0.3899 	1.05962e-103
0.3906 	7.79118e-104
0.3913 	5.08904e-104
0.392 	3.70786e-104
0.3927 	2.22496e-104
0.3934 	7.42049e-105
0.3941 	5.42856e-108
0.3948 	4.33112e-108
0.3955 	3.22965e-108
0.3962 	2.12656e-108
0.3969 	1.55421e-108
0.3976 	9.66216e-109
0.3983 	3.78225e-109
0.399 	2.17275e-112
0.3997 	1.74733e-112
0.4004 	1.32008e-112
0.4011 	8.9146e-113
0.4018 	6.41203e-113
0.4025 	4.11797e-113
0.4032 	1.8124e-113
0.4039 	8.58424e-117
0.4046 	6.95603e-117
0.4053 	5.32026e-117
0.406 	3.67442e-117
0.4067 	2.59469e-117
0.4074 	1.72431e-117
0.4081 	8.30396e-118
0.4088 	3.34655e-121
0.4095 	2.73142e-121
0.4102 	2.11367e-121
0.4109 	1.4894e-121
0.4116 	1.03391e-121
0.4123 	7.09586e-122
0.413 	3.67088e-122
0.4137 	2.45905e-123
0.4144 	1.05703e-125
0.4151 	8.27207e-126
0.4158 	5.93501e-126
0.4165 	4.05416e-126
0.4172 	2.86922e-126
0.4179 	1.57365e-126
0.4186 	2.78088e-127
0.4193 	4.02818e-130
0.42 	3.1871e-130
0.4207 	2.32425e-130
0.4214 	1.56361e-130
0.4221 	1.13983e-130
0.4228 	6.56339e-131
0.4235 	1.72846e-131
0.4242 	1.51115e-134
0.4249 	1.20745e-134
0.4256 	8.94821e-135
0.4263 	5.9325e-135
0.427 	4.45151e-135
0.4277 	2.67115e-135
0.4284 	8.90788e-136
0.4291 	5.57962e-139
0.4298 	4.49957e-139
0.4305 	3.38596e-139
0.4312 	2.25891e-139
0.4319 	1.70861e-139
0.4326 	1.06219e-139
0.4333 	4.15772e-140
0.434 	2.02587e-143
0.4347 	1.64551e-143
0.4354 	1.25611e-143
0.4361 	8.59951e-144
0.4368 	6.41796e-144
0.4375 	4.13061e-144
0.4382 	1.81789e-144
0.4389 	5.53213e-148
0.4396 	-4.21629e-148
0.4403 	-6.7568e-148
0.441 	3.13252e-149
0.4417 	2.4729e-148
0.4424 	1.70414e-148
0.4431 	8.90149e-149
0.4438 	-3.37226e-150
0.4445 	-2.38597e-148
0.4452 	-3.40435e-148
0.4459 	-1.08809e-148
0.4466 	6.63824e-150
0.4473 	5.39789e-150
0.448 	3.91102e-150
0.4487 	2.42416e-150
0.4494 	-8.07191e-150
0.4501 	-1.6136e-149
0.4508 	-5.45047e-150
0.4515 	1.35946e-150
0.4522 	1.18673e-150
0.4529 	1.00826e-150
0.4536 	8.29795e-151
0.4543 	2.84481e-151
0.455 	-3.6088e-151
0.4557 	1.02621e-151
0.4564 	4.54088e-151
0.4571 	3.93868e-151
0.4578 	3.32235e-151
0.4585 	2.70602e-151
0.4592 	2.0834e-151
0.4599 	1.45728e-151
0.4606 	1.39564e-151
0.4613 	1.41238e-151
0.462 	1.22197e-151
0.4627 	1.02213e-151
0.4634 	8.22281e-152
0.4641 	6.67323e-152
0.4648 	5.57251e-152
0.4655 	4.77768e-152
0.4662 	4.10522e-152
0.4669 	3.548e-152
0.4676 	2.95019e-152
0.4683 	2.35238e-152
0.469 	1.87573e-152
0.4697 	1.61716e-152
0.4704 	1.37249e-152
0.4711 	1.13826e-152
0.4718 	9.73083e-153
0.4725 	8.06646e-153
0.4732 	6.39316e-153
0.4739 	4.94048e-153
0.4746 	4.29669e-153
0.4753 	3.6516e-153
0.476 	3.00477e-153
0.4767 	2.53419e-153
0.4774 	2.10422e-153
0.4781 	1.66121e-153
0.4788 	1.23861e-153
0.4795 	1.08141e-153
0.4802 	9.22275e-154
0.4809 	7.58313e-154
0.4816 	6.31199e-154
0.4823 	5.26484e-154
0.483 	4.14697e-154
0.4837 	3.0291e-154
0.4844 	2.60593e-154
0.4851 	2.23269e-154
0.4858 	1.83835e-154
0.4865 	1.51016e-154
0.4872 	1.26869e-154
0.4879 	9.98338e-155
0.4886 	7.27987e-155
0.4893 	6.04414e-155
0.49 	5.2087e-155
0.4907 	4.29868e-155
0.4914 	3.48393e-155
0.4921 	2.95532e-155
0.4928 	2.32589e-155
0.4935 	1.69647e-155
0.4942 	1.35485e-155
0.4949 	1.17311e-155
0.4956 	9.73351e-156
0.4963 	7.77937e-156
0.497 	6.6788e-156
0.4977 	5.26202e-156
0.4984 	3.84525e-156
0.4991 	2.94589e-156
0.4998 	2.56395e-156
0.5005 	2.14188e-156
0.5012 	1.70377e-156
0.5019 	1.46934e-156
0.5026 	1.15984e-156
0.5033 	8.50336e-157
0.504 	6.23579e-157
0.5047 	5.4576e-157
0.5054 	4.59729e-157
0.5061 	3.67538e-157
0.5068 	3.14734e-157
0.5075 	2.49907e-157
0.5082 	1.84037e-157
0.5089 	1.28976e-157
0.5096 	1.13548e-157
0.5103 	9.66026e-158
0.511 	7.76352e-158
0.5117 	6.55185e-158
0.5124 	5.28176e-158
0.5131 	3.91079e-158
0.5138 	2.6164e-158
0.5145 	2.31756e-158
0.5152 	1.99465e-158
0.5159 	1.61153e-158
0.5166 	1.33945e-158
0.5173 	1.09862e-158
0.518 	8.18504e-159
0.5187 	5.38389e-159
0.5194 	4.65711e-159
0.5201 	4.06197e-159
0.5208 	3.29927e-159
0.5215 	2.69925e-159
0.5222 	2.25674e-159
0.5229 	1.69279e-159
0.5236 	1.12884e-159
0.5243 	9.24818e-160
0.525 	8.18953e-160
0.5257 	6.68708e-160
0.5264 	5.38246e-160
0.5271 	4.59435e-160
0.5278 	3.47127e-160
0.5285 	2.34818e-160
0.5292 	1.82175e-160
0.5299 	1.62678e-160
0.5306 	1.34691e-160
0.5313 	1.06614e-160
0.532 	9.30321e-161
0.5327 	7.08253e-161
0.5334 	4.86185e-161
0.5341 	3.57373e-161
0.5348 	3.21815e-161
0.5355 	2.70663e-161
0.5362 	2.13274e-161
0.5369 	1.88079e-161
0.5376 	1.44309e-161
0.5383 	1.00539e-161
0.539 	7.00995e-162
0.5397 	6.36558e-162
0.5404 	5.44833e-162
0.5411 	4.32641e-162
0.5418 	3.78895e-162
0.5425 	2.94739e-162
0.5432 	2.08394e-162
0.5439 	1.38057e-162
0.5446 	1.26417e-162
0.5453 	1.10313e-162
0.546 	8.82569e-163
0.5467 	7.58142e-163
0.5474 	6.05814e-163
0.5481 	4.34642e-163
0.5488 	2.74194e-163
0.5495 	2.53152e-163
0.5502 	2.25608e-163
0.5509 	1.81811e-163
0.5516 	1.53175e-163
0.5523 	1.25809e-163
0.553 	9.15653e-164
0.5537 	5.73215e-164
0.5544 	5.13316e-164
0.5551 	4.68002e-164
0.5558 	3.79793e-164
0.5565 	3.13821e-164
0.5572 	2.65018e-164
0.5579 	1.95596e-164
0.5586 	1.26175e-164
0.5593 	1.05827e-164
0.56 	9.88625e-165
0.5607 	8.07698e-165
0.5614 	6.54634e-165
0.5621 	5.68413e-165
0.5628 	4.25222e-165
0.5635 	2.82031e-165
0.5642 	2.22651e-165
0.5649 	2.09831e-165
0.5656 	1.7549e-165
0.5663 	1.39541e-165
0.567 	1.24544e-165
0.5677 	9.43884e-166
0.5684 	6.42325e-166
0.5691 	4.79624e-166
0.5698 	4.55779e-166
0.5705 	3.90738e-166
0.5712 	3.09218e-166
0.5719 	2.79584e-166
0.5726 	2.14536e-166
0.5733 	1.49488e-166
0.574 	1.0607e-166
0.5747 	1.01584e-166
0.5754 	8.93708e-167
0.5761 	7.13611e-167
0.5768 	6.39873e-167
0.5775 	5.00402e-167
0.5782 	3.56322e-167
0.5789 	2.41288e-167
0.5796 	2.32757e-167
0.5803 	2.10325e-167
0.581 	1.69356e-167
0.5817 	1.48421e-167
0.5824 	1.19953e-167
0.5831 	8.7122e-168
0.5838 	5.65194e-168
0.5845 	5.4882e-168
0.5852 	5.09682e-168
0.5859 	4.13637e-168
0.5866 	3.54506e-168
0.5873 	2.95698e-168
0.588 	2.18662e-168
0.5887 	1.41626e-168
0.5894 	1.33188e-168
0.5901 	1.27162e-168
0.5908 	1.03957e-168
0.5915 	8.71808e-169
0.5922 	7.49423e-169
0.5929 	5.63259e-169
0.5936 	3.77094e-169
0.5943 	3.32399e-169
0.595 	3.26287e-169
0.5957 	2.68563e-169
0.5964 	2.20509e-169
0.5971 	1.95057e-169
0.5978 	1.48759e-169
0.5985 	1.0246e-169
0.5992 	8.51691e-170
0.5999 	8.3993e-170
0.6006 	7.1176e-170
0.6013 	5.72482e-170
0.602 	5.20325e-170
0.6027 	4.02024e-170
0.6034 	2.83724e-170
0.6041 	2.23456e-170
0.6048 	2.21221e-170
0.6055 	1.92963e-170
0.6062 	1.54296e-170
0.6069 	1.41847e-170
0.6076 	1.10867e-170
0.6083 	7.98883e-171
0.609 	5.98247e-171
0.6097 	5.94087e-171
0.6104 	5.33177e-171
0.6111 	4.29703e-171
0.6118 	3.90807e-171
0.6125 	3.10883e-171
0.6132 	2.28024e-171
0.6139 	1.62759e-171
0.6146 	1.62003e-171
0.6153 	1.49504e-171
0.616 	1.21346e-171
0.6167 	1.07611e-171
0.6174 	8.82769e-172
0.6181 	6.57345e-172
0.6188 	4.47928e-172
0.6195 	4.46575e-172
0.6202 	4.2345e-172
0.6209 	3.45893e-172
0.6216 	2.99304e-172
0.6223 	2.52721e-172
0.623 	1.90627e-172
0.6237 	1.28533e-172
0.6244 	1.23866e-172
0.6251 	1.20579e-172
0.6258 	9.90598e-173
0.6265 	8.36879e-173
0.6272 	7.26161e-173
0.6279 	5.5381e-173
0.6286 	3.81458e-173
0.6293 	3.44109e-173
0.63 	3.43578e-173
0.6307 	2.83722e-173
0.6314 	2.34133e-173
0.6321 	2.08491e-173
0.6328 	1.60514e-173
0.6335 	1.12536e-173
0.6342 	9.53057e-174
0.6349 	9.51572e-174
0.6356 	8.08957e-174
0.6363 	6.52323e-174
0.637 	5.95463e-174
0.6377 	4.62145e-174
0.6384 	3.28827e-174
0.6391 	2.61904e-174
0.6398 	2.61375e-174
0.6405 	2.28515e-174
0.6412 	1.82723e-174
0.6419 	1.68376e-174
0.6426 	1.31573e-174
0.6433 	9.47703e-175
0.644 	7.10375e-175
0.6447 	7.08305e-175
0.6454 	6.36167e-175
0.6461 	5.11478e-175
0.6468 	4.65216e-175
0.6475 	3.68499e-175
0.6482 	2.6809e-175
0.6489 	1.89025e-175
0.6496 	1.88219e-175
0.6503 	1.7347e-175
0.651 	1.40128e-175
0.6517 	1.23934e-175
0.6524 	1.00905e-175
0.6531 	7.39905e-176
0.6538 	4.89773e-176
0.6545 	4.86776e-176
0.6552 	4.59802e-176
0.6559 	3.72887e-176
0.6566 	3.20708e-176
0.6573 	2.68067e-176
0.658 	1.97704e-176
0.6587 	1.27342e-176
0.6594 	1.21339e-176
0.6601 	1.17312e-176
0.6608 	9.54314e-177
0.6615 	7.97899e-177
0.6622 	6.84033e-177
0.6629 	5.06313e-177
0.6636 	3.28594e-177
0.6643 	2.87809e-177
0.665 	2.84368e-177
0.6657 	2.31836e-177
0.6664 	1.8828e-177
0.6671 	1.65439e-177
0.6678 	1.22622e-177
0.6685 	7.98052e-178
0.6692 	6.38501e-178
0.6699 	6.28179e-178
0.6706 	5.25344e-178
0.6713 	4.13816e-178
0.672 	3.72578e-178
0.6727 	2.7588e-178
0.6734 	1.79182e-178
0.6741 	1.29445e-178
0.6748 	1.2667e-178
0.6755 	1.08457e-178
0.6762 	8.40693e-179
0.6769 	7.62917e-179
0.6776 	5.6302e-179
0.6783 	3.63123e-179
0.679 	2.32305e-179
0.6797 	2.25831e-179
0.6804 	1.97554e-179
0.6811 	1.52926e-179
0.6818 	1.36147e-179
0.6825 	1.00907e-179
0.6832 	6.43017e-180
0.6839 	3.52722e-180
0.6846 	3.40213e-180
0.6853 	3.0339e-180
0.686 	2.34147e-180
0.6867 	2.00235e-180
0.6874 	1.51724e-180
0.6881 	9.50395e-181
0.6888 	4.22709e-181
0.6895 	4.04066e-181
0.6902 	3.66479e-181
0.6909 	2.81535e-181
0.6916 	2.30308e-181
0.6923 	1.78491e-181
0.693 	1.09334e-181
0.6937 	4.01776e-182
0.6944 	3.3483e-182
0.6951 	3.0822e-182
0.6958 	2.35342e-182
0.6965 	1.83196e-182
0.6972 	1.46585e-182
0.6979 	8.99776e-183
0.6986 	3.33702e-183
0.6993 	2.16582e-183
0.7 	2.21903e-183
