0 	1
0.0007 	1
0.0014 	1
0.0021 	1
0.0028 	1
0.0035 	1
0.0042 	1
0.0049 	1
0.0056 	1
0.0063 	1
0.007 	1
0.0077 	1
0.0084 	1
0.0091 	1
0.0098 	1
0.0105 	1
0.0112 	1
0.0119 	1
0.0126 	1
0.0133 	1
0.014 	1
0.0147 	1
0.0154 	1
0.0161 	1
0.0175 	1
0.0182 	1
0.0189 	1
0.0196 	1
0.0203 	1
0.021 	1
0.0217 	1
0.0224 	1
0.0231 	1
0.0238 	1
0.0245 	1
0.0252 	1
0.0266 	1
0.0273 	1
0.028 	1
0.0287 	1
0.0294 	1
0.0301 	1
0.0308 	1
0.0315 	1
0.0322 	1
0.0329 	1
0.0336 	1
0.0343 	1
0.035 	1
0.0357 	1
0.0371 	1
0.0378 	1
0.0385 	1
0.0392 	1
0.0399 	1
0.0406 	1
0.0413 	1
0.042 	1
0.0427 	1
0.0434 	1
0.0441 	1
0.0448 	1
0.0455 	1
0.0469 	1
0.0476 	1
0.0483 	1
0.049 	1
0.0497 	1
0.0504 	1
0.0511 	1
0.0518 	1
0.0525 	1
0.0532 	1
0.0539 	1
0.0546 	1
0.0553 	1
0.056 	1
0.0567 	1
0.0574 	1
0.0581 	1
0.0588 	1
0.0602 	1
0.0609 	1
0.0616 	1
0.0623 	1
0.063 	1
0.0637 	1
0.0644 	1
0.0651 	1
0.0658 	1
0.0665 	1
0.0672 	1
0.0679 	1
0.0686 	1
0.0693 	1
0.07 	1
0.0707 	1
0.0714 	1
0.0721 	1
0.0728 	1
0.0735 	1
0.0742 	1
0.0749 	1
0.0756 	1
0.0763 	1
0.077 	1
0.0777 	1
0.0784 	1
0.0791 	1
0.0798 	1
0.0805 	1
0.0812 	1
0.0819 	1
0.0833 	1
0.084 	1
0.0847 	1
0.0854 	1
0.0861 	1
0.0868 	1
0.0875 	1
0.0882 	1
0.0889 	1
0.0896 	1
0.0903 	1
0.091 	1
0.0917 	1
0.0924 	1
0.0931 	1
0.0938 	1
0.0945 	1
0.0952 	1
0.0959 	1
0.0966 	1
0.0973 	1
0.098 	1
0.0987 	1
0.0994 	1
0.1001 	1
0.1008 	1
0.1015 	1
0.1022 	1
0.1029 	1
0.1036 	1
0.1043 	1
0.105 	1
0.1057 	1
0.1071 	1
0.1078 	1
0.1085 	1
0.1092 	1
0.1099 	1
0.1106 	1
0.1113 	1
0.112 	1
0.1134 	1
0.1141 	1
0.1148 	1
0.1155 	1
0.1162 	1
0.1169 	1
0.1176 	1
0.1183 	1
0.119 	1
0.1197 	1
0.1204 	1
0.1211 	1
0.1218 	1
0.1225 	1
0.1232 	1
0.1239 	1
0.1246 	1
0.1253 	1
0.126 	1
0.1267 	1
0.1274 	1
0.1281 	1
0.1288 	1
0.1295 	1
0.1302 	1
0.1309 	1
0.1323 	1
0.133 	1
0.1337 	1
0.1344 	1
0.1351 	1
0.1358 	1
0.1365 	1
0.1372 	1
0.1386 	1
0.1393 	1
0.14 	1
0.1407 	1
0.1414 	1
0.1428 	1
0.1435 	1
0.1442 	1
0.1449 	1
0.1456 	1
0.1463 	1
0.147 	1
0.1477 	1
0.1484 	1
0.1491 	1
0.1498 	1
0.1505 	1
0.1512 	1
0.1519 	1
0.1526 	1
0.1533 	1
0.154 	1
0.1547 	1
0.1554 	1
0.1561 	1
0.1568 	1
0.1575 	1
0.1582 	1
0.1589 	1
0.1596 	1
0.1603 	1
0.161 	1
0.1617 	1
0.1624 	1
0.1631 	1
0.1638 	1
0.1645 	1
0.1652 	1
0.1659 	1
0.1673 	1
0.168 	1
0.1687 	1
0.1694 	1
0.1701 	1
0.1708 	1
0.1715 	1
0.1729 	1
0.1736 	1
0.1743 	1
0.175 	1
0.1757 	1
0.1764 	1
0.1771 	1
0.1778 	1
0.1785 	1
0.1792 	1
0.1799 	1
0.1806 	1
0.1813 	1
0.182 	1
0.1827 	1
0.1834 	1
0.1841 	1
0.1848 	1
0.1855 	1
0.1862 	1
0.1876 	1
0.1883 	1
0.189 	1
0.1904 	1
0.1918 	1
0.1925 	1
0.1932 	1
0.1939 	1
0.1946 	1
0.1953 	1
0.1967 	1
0.1974 	1
0.1981 	1
0.1988 	1
0.1995 	1
0.2002 	1
0.2009 	1
0.2016 	1
0.203 	1
0.2037 	1
0.2044 	1
0.2051 	1
0.2058 	1
0.2065 	1
0.2072 	1
0.2079 	1
0.2086 	1
0.2093 	1
0.21 	1
0.2107 	1
0.2114 	1
0.2121 	1
0.2128 	1
0.2135 	1
0.2142 	1
0.2149 	1
0.2156 	1
0.2163 	1
0.2177 	1
0.2184 	1
0.2191 	1
0.2198 	1
0.2205 	1
0.2212 	1
0.2219 	1
0.2226 	1
0.2233 	1
0.224 	1
0.2247 	1
0.2254 	1
0.2261 	1
0.2268 	1
0.2275 	1
0.2282 	1
0.2289 	1
0.2296 	1
0.2303 	1
0.231 	1
0.2317 	1
0.2331 	1
0.2338 	1
0.2345 	1
0.2352 	1
0.2359 	1
0.2366 	1
0.2373 	1
0.238 	1
0.2387 	1
0.2394 	1
0.2401 	0.999998
0.2408 	0.999988
0.2415 	0.999978
0.2422 	0.999967
0.2429 	0.999957
0.2436 	0.999946
0.2443 	0.999936
0.245 	0.999926
0.2464 	0.997809
0.2471 	0.996751
0.2478 	0.995693
0.2485 	0.994635
0.2492 	0.993577
0.2499 	0.992519
0.2506 	0.977617
0.2513 	0.960408
0.252 	0.943199
0.2527 	0.925989
0.2534 	0.90878
0.2541 	0.89157
0.2555 	0.827644
0.2569 	0.710604
0.2576 	0.652083
0.2583 	0.593563
0.259 	0.535042
0.2597 	0.476522
0.2604 	0.421604
0.2611 	0.369388
0.2618 	0.317172
0.2625 	0.264956
0.2632 	0.212741
0.2639 	0.160525
0.2646 	0.10831
0.2653 	0.0740682
0.266 	0.0637924
0.2667 	0.0535171
0.2681 	0.0329671
0.2688 	0.022692
0.2695 	0.012417
0.2702 	0.00493854
0.2709 	0.00445151
0.2716 	0.00396451
0.2723 	0.00347752
0.2737 	0.00250356
0.2744 	0.00201657
0.2751 	0.00158361
0.2758 	0.00147479
0.2765 	0.00136597
0.2772 	0.00125716
0.2779 	0.00114834
0.2786 	0.00103953
0.2793 	0.000930716
0.28 	0.000821901
0.2807 	0.000758961
0.2814 	0.000696021
0.2821 	0.000633085
0.2828 	0.000570149
0.2835 	0.000507212
0.2842 	0.000444276
0.2849 	0.000381339
0.2856 	0.000344477
0.2863 	0.00031196
0.2877 	0.000246932
0.2884 	0.000214418
0.2891 	0.000181904
0.2898 	0.00014939
0.2905 	0.000130816
0.2912 	0.000117819
0.2919 	0.000104823
0.2926 	9.18264e-05
0.2933 	7.88303e-05
0.294 	6.58342e-05
0.2947 	5.28381e-05
0.2954 	4.46972e-05
0.2961 	4.01977e-05
0.2968 	3.56988e-05
0.2975 	3.11999e-05
0.2982 	2.67011e-05
0.2989 	2.22022e-05
0.2996 	1.77034e-05
0.3003 	1.45033e-05
0.301 	1.30347e-05
0.3017 	1.15663e-05
0.3024 	1.0098e-05
0.3031 	8.62967e-06
0.3038 	7.16135e-06
0.3045 	5.69304e-06
0.3052 	4.51123e-06
0.3059 	4.0457e-06
0.3066 	3.58021e-06
0.308 	2.6493e-06
0.3087 	2.18385e-06
0.3094 	1.7184e-06
0.3101 	1.2993e-06
0.3108 	1.15833e-06
0.3115 	1.01736e-06
0.3129 	7.35455e-07
0.3136 	5.94501e-07
0.3143 	4.53546e-07
0.315 	3.12592e-07
0.3157 	2.75963e-07
0.3164 	2.39334e-07
0.3178 	1.66079e-07
0.3185 	1.29452e-07
0.3192 	9.28247e-08
0.3199 	5.61973e-08
0.3206 	4.54101e-08
0.3213 	3.89295e-08
0.322 	3.24483e-08
0.3227 	2.59671e-08
0.3234 	1.9486e-08
0.3241 	1.30048e-08
0.3248 	6.52362e-09
0.3255 	4.22222e-09
0.3262 	3.59273e-09
0.3276 	2.33328e-09
0.3283 	1.70355e-09
0.329 	1.07382e-09
0.3297 	4.44092e-10
0.3304 	1.60926e-10
0.3311 	1.37683e-10
0.3318 	1.14424e-10
0.3325 	9.1162e-11
0.3332 	6.78995e-11
0.3339 	4.46371e-11
0.3346 	2.13747e-11
0.3353 	8.02382e-12
0.336 	7.88842e-12
0.3367 	7.75289e-12
0.3374 	7.61729e-12
0.3381 	7.48169e-12
0.3388 	7.34609e-12
0.3395 	7.21049e-12
0.3402 	7.10655e-12
0.3416 	7.05687e-12
0.3423 	7.03183e-12
0.343 	7.00679e-12
0.3437 	6.98175e-12
0.3444 	6.9567e-12
0.3451 	6.97337e-12
0.3458 	7.24029e-12
0.3465 	7.50661e-12
0.3472 	7.77184e-12
0.3479 	8.03707e-12
0.3486 	8.3023e-12
0.3493 	8.56753e-12
0.35 	8.83276e-12
0.3507 	9.61507e-12
0.3514 	1.03972e-11
0.3521 	1.11787e-11
0.3528 	1.19602e-11
0.3535 	1.27417e-11
0.3542 	1.35231e-11
0.3549 	1.43046e-11
0.3556 	1.48693e-11
0.3563 	1.53979e-11
0.3577 	1.64584e-11
0.3584 	1.69887e-11
0.3591 	1.7519e-11
0.3598 	1.80492e-11
0.3605 	1.76602e-11
0.3612 	1.69035e-11
0.3619 	1.61517e-11
0.3633 	1.46489e-11
0.364 	1.38975e-11
0.3647 	1.31461e-11
0.3654 	1.21197e-11
0.3661 	1.08869e-11
0.3668 	9.6545e-12
0.3675 	8.42226e-12
0.3682 	7.19002e-12
0.3689 	5.95779e-12
0.3696 	4.72555e-12
0.3703 	3.80248e-12
0.371 	3.29164e-12
0.3717 	2.77809e-12
0.3724 	2.26302e-12
0.3731 	1.74795e-12
0.3738 	1.23288e-12
0.3745 	7.17815e-13
0.3752 	3.3619e-13
0.3759 	2.88174e-13
0.3766 	2.39848e-13
0.3773 	1.91211e-13
0.378 	1.42575e-13
0.3787 	9.39385e-14
0.3794 	4.53021e-14
0.3801 	3.54443e-15
0.3808 	3.05997e-15
0.3815 	2.57137e-15
0.3829 	1.57928e-15
0.3836 	1.08323e-15
0.3843 	5.87182e-16
0.385 	9.1135e-17
0.3857 	8.58568e-17
0.3864 	8.05757e-17
0.3871 	7.52839e-17
0.3878 	6.99921e-17
0.3885 	6.47002e-17
0.3892 	5.94084e-17
0.3899 	5.41166e-17
0.3906 	4.93805e-17
0.3913 	4.47362e-17
0.3927 	3.54242e-17
0.3934 	3.07681e-17
0.3941 	2.61121e-17
0.3948 	2.14561e-17
0.3955 	1.85639e-17
0.3962 	1.63771e-17
0.3969 	1.41773e-17
0.3976 	1.19765e-17
0.3983 	9.77572e-18
0.399 	7.5749e-18
0.3997 	5.37409e-18
0.4004 	4.1229e-18
0.4011 	3.58393e-18
0.4018 	3.04133e-18
0.4025 	2.49775e-18
0.4032 	1.95417e-18
0.4039 	1.41058e-18
0.4046 	8.66996e-19
0.4053 	5.25301e-19
0.4067 	3.79766e-19
0.4074 	3.06452e-19
0.4081 	2.33138e-19
0.4088 	1.59824e-19
0.4102 	3.28216e-20
0.4109 	2.81949e-20
0.4116 	2.35354e-20
0.4123 	1.88433e-20
0.413 	1.41511e-20
0.4137 	9.45894e-21
0.4144 	4.76678e-21
0.4151 	7.30296e-22
0.4158 	6.27869e-22
0.4165 	5.24765e-22
0.4172 	4.20439e-22
0.4179 	3.16114e-22
0.4186 	2.11789e-22
0.4193 	1.07463e-22
0.42 	3.1378e-24
0.4207 	2.70675e-24
0.4214 	2.2734e-24
0.4228 	1.38981e-24
0.4235 	9.48021e-25
0.4242 	5.06228e-25
0.4249 	6.44355e-26
0.4256 	1.16734e-27
0.4263 	9.86257e-28
0.427 	7.99675e-28
0.4284 	4.2651e-28
0.4291 	2.39928e-28
0.4298 	5.33452e-29
0.4305 	3.24618e-32
0.4319 	2.25061e-32
0.4326 	1.74242e-32
0.4333 	1.23424e-32
0.434 	7.26049e-33
0.4347 	2.17862e-33
0.4354 	6.20724e-37
0.4361 	5.29024e-37
0.4368 	4.34667e-37
0.4375 	3.39586e-37
0.4382 	2.44506e-37
0.4389 	1.49425e-37
0.4396 	5.4344e-38
0.4403 	1.13974e-41
0.441 	9.74689e-42
0.4417 	8.05854e-42
0.4424 	6.3492e-42
0.4431 	4.63985e-42
0.4438 	2.93051e-42
0.4445 	1.22116e-42
0.4452 	1.95631e-46
0.4466 	1.39623e-46
0.4473 	1.10878e-46
0.448 	8.21324e-47
0.4487 	5.33872e-47
0.4494 	2.46419e-47
0.4501 	3.12841e-51
0.4508 	2.69335e-51
0.4522 	1.80222e-51
0.4529 	1.35168e-51
0.4536 	9.01135e-52
0.4543 	4.50591e-52
0.455 	4.77041e-56
0.4557 	4.1198e-56
0.4564 	3.46427e-56
0.4578 	2.11708e-56
0.4585 	1.44349e-56
0.4592 	7.69892e-57
0.4606 	6.14507e-61
0.4613 	5.19311e-61
0.462 	4.21065e-61
0.4627 	3.22819e-61
0.4634 	2.24573e-61
0.4641 	1.26327e-61
0.4648 	2.80804e-62
0.4655 	9.14956e-66
0.4662 	7.765e-66
0.4669 	6.33733e-66
0.4676 	4.90636e-66
0.4683 	3.47538e-66
0.469 	2.0444e-66
0.4697 	6.13425e-67
0.4704 	1.37304e-70
0.4711 	1.16949e-70
0.4718 	9.60746e-71
0.4725 	7.50588e-71
0.4732 	5.40429e-71
0.4739 	3.30271e-71
0.4746 	1.20112e-71
0.4753 	2.07103e-75
0.476 	1.77015e-75
0.4767 	1.46317e-75
0.4774 	1.15281e-75
0.4781 	8.42446e-76
0.4788 	5.32083e-76
0.4795 	2.2172e-76
0.4802 	3.12372e-80
0.4809 	2.67886e-80
0.4816 	2.22717e-80
0.4823 	1.76864e-80
0.483 	1.31012e-80
0.4837 	8.51594e-81
0.4844 	3.93069e-81
0.4851 	4.72053e-85
0.4858 	4.06131e-85
0.4865 	3.39503e-85
0.4879 	2.03705e-85
0.4886 	1.35806e-85
0.4893 	6.79064e-86
0.49 	7.1692e-90
0.4907 	6.18714e-90
0.4914 	5.1989e-90
0.4921 	4.18802e-90
0.4928 	3.17715e-90
0.4935 	2.16627e-90
0.4942 	1.15539e-90
0.4949 	1.44515e-91
0.4956 	9.20163e-95
0.4963 	7.7697e-95
0.4977 	4.82987e-95
0.4984 	3.35996e-95
0.4991 	1.89004e-95
0.4998 	4.20127e-96
0.5005 	1.36147e-99
0.5012 	1.15449e-99
0.5019 	9.42156e-100
0.5026 	7.29416e-100
0.5033 	5.16677e-100
0.504 	3.03937e-100
0.5054 	2.05664e-104
0.5061 	1.75042e-104
0.5068 	1.4377e-104
0.5082 	8.08723e-105
0.5089 	4.94232e-105
0.5096 	1.79742e-105
0.5103 	3.19063e-109
0.511 	2.72515e-109
0.5117 	2.25185e-109
0.5124 	1.7742e-109
0.5131 	1.29654e-109
0.5138 	8.18888e-110
0.5145 	3.41234e-110
0.5152 	5.09171e-114
0.5166 	3.6263e-114
0.5173 	2.87973e-114
0.518 	2.13315e-114
0.5187 	1.38658e-114
0.5194 	6.40006e-115
0.5201 	8.38322e-119
0.5215 	6.02204e-119
0.5222 	4.81766e-119
0.5229 	3.61328e-119
0.5236 	2.4089e-119
0.5243 	1.20452e-119
0.525 	1.42892e-123
0.5257 	1.2324e-123
0.5264 	1.03487e-123
0.5271 	8.33649e-124
0.5278 	6.32429e-124
0.5285 	4.3121e-124
0.5292 	2.2999e-124
0.5299 	2.87705e-125
0.5306 	2.18652e-128
0.5313 	1.84485e-128
0.532 	1.49583e-128
0.5327 	1.14681e-128
0.5334 	7.97798e-129
0.5341 	4.48781e-129
0.5348 	9.97639e-130
0.5355 	4.03807e-133
0.5362 	3.4215e-133
0.5369 	2.79205e-133
0.5376 	2.16161e-133
0.5383 	1.53116e-133
0.539 	9.00719e-134
0.5397 	2.70275e-134
0.5404 	7.78603e-138
0.5411 	6.62196e-138
0.5418 	5.43791e-138
0.5425 	4.2484e-138
0.5432 	3.0589e-138
0.5439 	1.86939e-138
0.5446 	6.79885e-139
0.5453 	1.5742e-142
0.5467 	1.10996e-142
0.5474 	8.74523e-143
0.5481 	6.39084e-143
0.5488 	4.03646e-143
0.5495 	1.68207e-143
0.5502 	3.50242e-147
0.5509 	3.01331e-147
0.5516 	2.51921e-147
0.5523 	2.02011e-147
0.553 	1.52102e-147
0.5537 	1.02192e-147
0.5544 	5.22824e-148
0.5551 	9.4316e-149
0.5558 	8.9339e-149
0.5572 	7.93812e-149
0.5579 	7.44014e-149
0.5586 	6.94216e-149
0.5593 	6.44418e-149
0.56 	5.9462e-149
0.5607 	5.59828e-149
0.5614 	5.2503e-149
0.5621 	4.90215e-149
0.5628 	4.55399e-149
0.5635 	4.20584e-149
0.5642 	3.85768e-149
0.5649 	3.50953e-149
0.5656 	3.27506e-149
0.5663 	3.05952e-149
0.567 	2.84383e-149
0.5677 	2.62814e-149
0.5684 	2.41245e-149
0.5691 	2.19676e-149
0.5698 	1.98106e-149
0.5705 	1.82876e-149
0.5712 	1.70181e-149
0.5719 	1.57475e-149
0.5726 	1.44769e-149
0.5733 	1.32063e-149
0.574 	1.19357e-149
0.5747 	1.06651e-149
0.5754 	9.71629e-150
0.5761 	9.00876e-150
0.5768 	8.30069e-150
0.5775 	7.59249e-150
0.5782 	6.88428e-150
0.5789 	6.17608e-150
0.5796 	5.46787e-150
0.5803 	4.90376e-150
0.5817 	4.15954e-150
0.5831 	3.4148e-150
0.5845 	2.67006e-150
0.5852 	2.35135e-150
0.5859 	2.16682e-150
0.5866 	1.98219e-150
0.5873 	1.79745e-150
0.5887 	1.42797e-150
0.5894 	1.24323e-150
0.5901 	1.07252e-150
0.5908 	9.85997e-151
0.5915 	8.99438e-151
0.5922 	8.12812e-151
0.5936 	6.3956e-151
0.5943 	5.52933e-151
0.595 	4.66307e-151
0.5957 	4.27858e-151
0.5964 	3.89398e-151
0.5971 	3.50899e-151
0.5978 	3.124e-151
0.5985 	2.73901e-151
0.5992 	2.35402e-151
0.5999 	1.96903e-151
0.6006 	1.77477e-151
0.6013 	1.61228e-151
0.602 	1.44958e-151
0.6027 	1.28689e-151
0.6034 	1.12419e-151
0.6041 	9.61498e-152
0.6048 	7.98803e-152
0.6055 	7.05531e-152
0.6062 	6.40028e-152
0.6069 	5.74439e-152
0.6076 	5.08843e-152
0.6083 	4.43247e-152
0.609 	3.77651e-152
0.6097 	3.12055e-152
0.6104 	2.69499e-152
0.6111 	2.44222e-152
0.6118 	2.18916e-152
0.6125 	1.93602e-152
0.6132 	1.68288e-152
0.6139 	1.42974e-152
0.6146 	1.1766e-152
0.6153 	9.91816e-153
0.6167 	8.04416e-153
0.6174 	7.10618e-153
0.6181 	6.16819e-153
0.6188 	5.23021e-153
0.6195 	4.29223e-153
0.6202 	3.52675e-153
0.6209 	3.1925e-153
0.6216 	2.85799e-153
0.6223 	2.52322e-153
0.623 	2.18844e-153
0.6237 	1.85367e-153
0.6244 	1.51889e-153
0.6251 	1.21547e-153
0.6258 	1.10019e-153
0.6265 	9.84835e-154
0.6272 	8.69363e-154
0.6279 	7.53891e-154
0.6286 	6.38419e-154
0.6293 	5.22947e-154
0.63 	4.07475e-154
0.6307 	3.68905e-154
0.6314 	3.30321e-154
0.6321 	2.91687e-154
0.6328 	2.53053e-154
0.6335 	2.14419e-154
0.6342 	1.75785e-154
0.6349 	1.37151e-154
0.6356 	1.20857e-154
0.6363 	1.08285e-154
0.637 	9.56938e-155
0.6377 	8.31025e-155
0.6384 	7.05112e-155
0.6391 	5.79199e-155
0.6398 	4.53286e-155
0.6405 	3.88669e-155
0.6412 	3.48571e-155
0.6419 	3.0841e-155
0.6433 	2.2808e-155
0.644 	1.87915e-155
0.6447 	1.4775e-155
0.6454 	1.23344e-155
0.6461 	1.10757e-155
0.6468 	9.81536e-156
0.6475 	8.5546e-156
0.6482 	7.29383e-156
0.6489 	6.03307e-156
0.6503 	3.88425e-156
0.651 	3.49313e-156
0.6517 	3.10162e-156
0.6524 	2.70989e-156
0.6531 	2.31815e-156
0.6538 	1.92642e-156
0.6545 	1.53469e-156
0.6552 	1.2203e-156
0.6559 	1.09929e-156
0.6566 	9.78187e-157
0.658 	7.35797e-157
0.6587 	6.14603e-157
0.6594 	4.93408e-157
0.6601 	3.84172e-157
0.6608 	3.46691e-157
0.6615 	3.0919e-157
0.6622 	2.71655e-157
0.6629 	2.34119e-157
0.6636 	1.96584e-157
0.6643 	1.59049e-157
0.665 	1.21513e-157
0.6664 	9.81676e-158
0.6671 	8.64807e-158
0.6678 	7.47937e-158
0.6685 	6.31067e-158
0.6692 	5.14197e-158
0.6699 	3.97327e-158
0.6706 	3.49243e-158
0.672 	2.75954e-158
0.6727 	2.39287e-158
0.6734 	2.02621e-158
0.6741 	1.65955e-158
0.6748 	1.29288e-158
0.6755 	1.10558e-158
0.6762 	9.90019e-159
0.6769 	8.74332e-159
0.6776 	7.58634e-159
0.6783 	6.42937e-159
0.679 	5.27239e-159
0.6797 	4.11542e-159
0.6804 	3.41258e-159
0.6818 	2.68778e-159
0.6825 	2.32514e-159
0.6832 	1.9625e-159
0.6839 	1.59986e-159
0.6853 	9.83388e-160
0.686 	8.7464e-160
0.6867 	7.65819e-160
0.6874 	6.56956e-160
0.6881 	5.48094e-160
0.6888 	4.39232e-160
0.6895 	3.30369e-160
0.6902 	2.44362e-160
0.6909 	2.15492e-160
0.6916 	1.86608e-160
0.6923 	1.57709e-160
0.693 	1.2881e-160
0.6937 	9.99112e-161
0.6944 	7.10123e-161
0.6951 	4.5424e-161
0.6965 	3.40428e-161
0.6979 	2.29793e-161
0.6986 	1.74475e-161
0.6993 	1.19158e-161
0.7 	6.38399e-162
