0 	1
0.0007 	1
0.0014 	1
0.0021 	1
0.0028 	1
0.0035 	1
0.0042 	1
0.0049 	1
0.0056 	1
0.0063 	1
0.007 	1
0.0077 	1
0.0084 	1
0.0091 	1
0.0098 	1
0.0105 	1
0.0112 	1
0.0119 	1
0.0126 	1
0.0133 	1
0.014 	1
0.0147 	1
0.0154 	1
0.0161 	1
0.0168 	1
0.0175 	1
0.0182 	1
0.0189 	1
0.0196 	1
0.0203 	1
0.021 	1
0.0217 	1
0.0224 	1
0.0231 	1
0.0238 	1
0.0245 	1
0.0252 	1
0.0259 	1
0.0266 	1
0.0273 	1
0.028 	1
0.0287 	1
0.0294 	1
0.0301 	1
0.0308 	1
0.0315 	1
0.0322 	1
0.0329 	1
0.0336 	1
0.0343 	1
0.035 	1
0.0357 	1
0.0364 	1
0.0371 	1
0.0378 	1
0.0385 	1
0.0392 	1
0.0399 	1
0.0406 	1
0.0413 	1
0.042 	1
0.0427 	1
0.0434 	1
0.0441 	1
0.0448 	1
0.0455 	1
0.0462 	1
0.0469 	1
0.0476 	1
0.0483 	1
0.049 	1
0.0497 	1
0.0504 	1
0.0511 	1
0.0518 	1
0.0525 	1
0.0532 	1
0.0539 	1
0.0546 	1
0.0553 	1
0.056 	1
0.0567 	1
0.0574 	1
0.0581 	1
0.0588 	1
0.0595 	1
0.0602 	1
0.0609 	1
0.0616 	1
0.0623 	1
0.063 	1
0.0637 	1
0.0644 	1
0.0651 	1
0.0658 	1
0.0665 	1
0.0672 	1
0.0679 	1
0.0686 	1
0.0693 	1
0.07 	1
0.0707 	1
0.0714 	1
0.0721 	1
0.0728 	1
0.0735 	1
0.0742 	1
0.0749 	1
0.0756 	1
0.0763 	1
0.077 	1
0.0777 	1
0.0784 	1
0.0791 	1
0.0798 	1
0.0805 	1
0.0812 	1
0.0819 	1
0.0826 	1
0.0833 	1
0.084 	1
0.0847 	1
0.0854 	1
0.0861 	1
0.0868 	1
0.0875 	1
0.0882 	1
0.0889 	1
0.0896 	1
0.0903 	1
0.091 	1
0.0917 	1
0.0924 	1
0.0931 	1
0.0938 	1
0.0945 	1
0.0952 	1
0.0959 	1
0.0966 	1
0.0973 	1
0.098 	1
0.0987 	1
0.0994 	1
0.1001 	1
0.1008 	1
0.1015 	1
0.1022 	1
0.1029 	1
0.1036 	1
0.1043 	1
0.105 	1
0.1057 	1
0.1064 	1
0.1071 	1
0.1078 	1
0.1085 	1
0.1092 	1
0.1099 	1
0.1106 	1
0.1113 	1
0.112 	1
0.1127 	1
0.1134 	1
0.1141 	1
0.1148 	1
0.1155 	1
0.1162 	1
0.1169 	1
0.1176 	1
0.1183 	1
0.119 	1
0.1197 	1
0.1204 	1
0.1211 	1
0.1218 	1
0.1225 	1
0.1232 	1
0.1239 	1
0.1246 	1
0.1253 	1
0.126 	1
0.1267 	1
0.1274 	1
0.1281 	1
0.1288 	1
0.1295 	1
0.1302 	1
0.1309 	1
0.1316 	1
0.1323 	1
0.133 	1
0.1337 	1
0.1344 	1
0.1351 	1
0.1358 	1
0.1365 	1
0.1372 	1
0.1379 	1
0.1386 	1
0.1393 	1
0.14 	1
0.1407 	1
0.1414 	1
0.1421 	1
0.1428 	1
0.1435 	1
0.1442 	1
0.1449 	1
0.1456 	1
0.1463 	1
0.147 	1
0.1477 	1
0.1484 	1
0.1491 	1
0.1498 	1
0.1505 	1
0.1512 	1
0.1519 	1
0.1526 	1
0.1533 	1
0.154 	1
0.1547 	1
0.1554 	1
0.1561 	1
0.1568 	1
0.1575 	1
0.1582 	1
0.1589 	1
0.1596 	1
0.1603 	1
0.161 	1
0.1617 	1
0.1624 	1
0.1631 	1
0.1638 	1
0.1645 	1
0.1652 	1
0.1659 	1
0.1666 	1
0.1673 	1
0.168 	1
0.1687 	1
0.1694 	1
0.1701 	1
0.1708 	1
0.1715 	1
0.1722 	1
0.1729 	1
0.1736 	1
0.1743 	1
0.175 	1
0.1757 	1
0.1764 	1
0.1771 	1
0.1778 	1
0.1785 	1
0.1792 	1
0.1799 	1
0.1806 	1
0.1813 	1
0.182 	1
0.1827 	1
0.1834 	1
0.1841 	1
0.1848 	1
0.1855 	1
0.1862 	1
0.1869 	1
0.1876 	1
0.1883 	1
0.189 	1
0.1897 	1
0.1904 	1
0.1911 	1
0.1918 	1
0.1925 	1
0.1932 	1
0.1939 	1
0.1946 	1
0.1953 	1
0.196 	1
0.1967 	1
0.1974 	1
0.1981 	1
0.1988 	1
0.1995 	1
0.2002 	1
0.2009 	1
0.2016 	1
0.2023 	1
0.203 	1
0.2037 	1
0.2044 	1
0.2051 	1
0.2058 	1
0.2065 	1
0.2072 	1
0.2079 	1
0.2086 	1
0.2093 	1
0.21 	1
0.2107 	1
0.2114 	1
0.2121 	1
0.2128 	1
0.2135 	1
0.2142 	1
0.2149 	1
0.2156 	1
0.2163 	1
0.217 	1
0.2177 	1
0.2184 	1
0.2191 	1
0.2198 	1
0.2205 	1
0.2212 	1
0.2219 	1
0.2226 	1
0.2233 	1
0.224 	1
0.2247 	1
0.2254 	1
0.2261 	1
0.2268 	1
0.2275 	1
0.2282 	1
0.2289 	1
0.2296 	1
0.2303 	0.999998
0.231 	0.999992
0.2317 	0.999986
0.2324 	0.999981
0.2331 	0.999975
0.2338 	0.999969
0.2345 	0.999964
0.2352 	0.999534
0.2359 	0.998043
0.2366 	0.996552
0.2373 	0.99506
0.238 	0.993569
0.2387 	0.992078
0.2394 	0.990586
0.2401 	0.985262
0.2408 	0.956927
0.2415 	0.928591
0.2422 	0.900252
0.2429 	0.871912
0.2436 	0.843572
0.2443 	0.815233
0.245 	0.786891
0.2457 	0.718438
0.2464 	0.649985
0.2471 	0.581537
0.2478 	0.513089
0.2485 	0.444641
0.2492 	0.376193
0.2499 	0.307746
0.2506 	0.262256
0.2513 	0.220596
0.252 	0.178941
0.2527 	0.137286
0.2534 	0.0956318
0.2541 	0.0539772
0.2548 	0.0123225
0.2555 	0.000384542
0.2562 	0.000329822
0.2569 	0.000269421
0.2576 	0.000208583
0.2583 	0.000147746
0.259 	8.69079e-05
0.2597 	2.60701e-05
0.2604 	3.66822e-10
0.2611 	2.83893e-10
0.2618 	2.27091e-10
0.2625 	1.77414e-10
0.2632 	1.27737e-10
0.2639 	7.80606e-11
0.2646 	2.83838e-11
0.2653 	4.12713e-17
0.266 	1.66422e-17
0.2667 	6.90458e-18
0.2674 	5.43995e-18
0.2681 	3.97533e-18
0.2688 	2.51071e-18
0.2695 	1.04609e-18
0.2702 	1.67558e-23
0.2709 	5.65583e-24
0.2716 	9.59817e-26
0.2723 	7.62216e-26
0.273 	5.64615e-26
0.2737 	3.67014e-26
0.2744 	1.69413e-26
0.2751 	4.8995e-30
0.2758 	1.92234e-30
0.2765 	7.89269e-33
0.2772 	6.31434e-33
0.2779 	4.736e-33
0.2786 	3.15765e-33
0.2793 	1.57931e-33
0.28 	1.06712e-36
0.2807 	4.70635e-37
0.2814 	1.88603e-39
0.2821 	1.51933e-39
0.2828 	1.15263e-39
0.2835 	7.85935e-40
0.2842 	4.19236e-40
0.2849 	5.25376e-41
0.2856 	9.14792e-44
0.2863 	3.42259e-46
0.287 	2.77511e-46
0.2877 	2.12763e-46
0.2884 	1.48015e-46
0.2891 	8.32674e-47
0.2898 	1.85196e-47
0.2905 	1.4674e-50
0.2912 	1.02321e-51
0.2919 	3.98106e-53
0.2926 	3.08216e-53
0.2933 	2.18327e-53
0.294 	1.28437e-53
0.2947 	3.85473e-54
0.2954 	1.97691e-57
0.2961 	3.539e-58
0.2968 	5.21542e-60
0.2975 	4.0746e-60
0.2982 	2.93377e-60
0.2989 	1.79295e-60
0.2996 	6.52124e-61
0.3003 	2.28697e-64
0.301 	6.07908e-65
0.3017 	7.25411e-67
0.3024 	5.7154e-67
0.3031 	4.17668e-67
0.3038 	2.63797e-67
0.3045 	1.09925e-67
0.3052 	2.30489e-71
0.3059 	7.77115e-72
0.3066 	1.19936e-73
0.3073 	9.52432e-74
0.308 	7.05507e-74
0.3087 	4.58581e-74
0.3094 	2.11656e-74
0.3101 	2.04873e-78
0.3108 	8.173e-79
0.3115 	2.39566e-80
0.3122 	1.91653e-80
0.3129 	1.43739e-80
0.3136 	9.58255e-81
0.3143 	4.79119e-81
0.315 	1.64275e-85
0.3157 	7.54466e-86
0.3164 	5.42714e-87
0.3171 	4.37185e-87
0.3178 	3.31656e-87
0.3185 	2.26127e-87
0.3192 	1.20598e-87
0.3199 	1.50693e-88
0.3206 	6.71372e-93
0.3213 	1.29285e-93
0.322 	1.04825e-93
0.3227 	8.03655e-94
0.3234 	5.59059e-94
0.3241 	3.14464e-94
0.3248 	6.98681e-95
0.3255 	6.88422e-100
0.3262 	3.28592e-100
0.3269 	2.50389e-100
0.3276 	1.93848e-100
0.3283 	1.37308e-100
0.329 	8.07679e-101
0.3297 	2.42276e-101
0.3304 	9.60703e-107
0.3311 	7.2335e-107
0.3318 	5.73855e-107
0.3325 	4.48322e-107
0.3332 	3.2279e-107
0.3339 	1.97257e-107
0.3346 	7.17241e-108
0.3353 	1.69793e-113
0.336 	1.48333e-113
0.3367 	1.23788e-113
0.3374 	9.75293e-114
0.3381 	7.12709e-114
0.3388 	4.50125e-114
0.3395 	1.87541e-114
0.3402 	3.15883e-120
0.3409 	2.86841e-120
0.3416 	2.46903e-120
0.3423 	1.96069e-120
0.343 	1.45236e-120
0.3437 	9.44019e-121
0.3444 	4.35681e-121
0.3451 	5.62275e-127
0.3458 	5.1553e-127
0.3465 	4.53114e-127
0.3472 	3.6249e-127
0.3479 	2.71866e-127
0.3486 	1.81242e-127
0.3493 	9.06175e-128
0.35 	9.2401e-134
0.3507 	8.49632e-134
0.3514 	7.59557e-134
0.3521 	6.11863e-134
0.3528 	4.6417e-134
0.3535 	3.16476e-134
0.3542 	1.68782e-134
0.3549 	2.10881e-135
0.3556 	1.27575e-140
0.3563 	1.15821e-140
0.357 	9.39083e-141
0.3577 	7.1996e-141
0.3584 	5.00837e-141
0.3591 	2.81714e-141
0.3598 	6.25902e-142
0.3605 	2.0866e-147
0.3612 	1.88823e-147
0.3619 	1.5495e-147
0.3626 	1.19999e-147
0.3633 	8.5047e-148
0.364 	5.00953e-148
0.3647 	1.51436e-148
0.3654 	1.59112e-150
0.3661 	1.4545e-150
0.3668 	1.21635e-150
0.3675 	9.50497e-151
0.3682 	6.84647e-151
0.3689 	4.18798e-151
0.3696 	1.52949e-151
0.3703 	1.01899e-153
0.371 	9.34386e-154
0.3717 	7.95737e-154
0.3724 	6.27063e-154
0.3731 	4.58388e-154
0.3738 	2.89714e-154
0.3745 	1.2104e-154
0.3752 	5.58394e-157
0.3759 	5.12683e-157
0.3766 	4.44132e-157
0.3773 	3.52741e-157
0.378 	2.6135e-157
0.3787 	1.6996e-157
0.3794 	7.85688e-158
0.3801 	2.38355e-160
0.3808 	2.19071e-160
0.3815 	1.92902e-160
0.3822 	1.54337e-160
0.3829 	1.15772e-160
0.3836 	7.7207e-161
0.3843 	3.8642e-161
0.385 	8.01735e-164
0.3857 	7.37601e-164
0.3864 	6.59739e-164
0.3871 	5.31496e-164
0.3878 	4.03254e-164
0.3885 	2.75011e-164
0.3892 	1.46769e-164
0.3899 	1.8526e-165
0.3906 	2.01121e-167
0.3913 	1.82617e-167
0.392 	1.48077e-167
0.3927 	1.13536e-167
0.3934 	7.89954e-168
0.3941 	4.44548e-168
0.3948 	9.91413e-169
0.3955 	4.54106e-171
0.3962 	4.15583e-171
0.3969 	3.41288e-171
0.3976 	2.64242e-171
0.3983 	1.87196e-171
0.399 	1.1015e-171
0.3997 	3.3104e-172
0.4004 	8.64103e-175
0.4011 	7.91674e-175
0.4018 	6.62337e-175
0.4025 	5.1748e-175
0.4032 	3.72623e-175
0.4039 	2.27766e-175
0.4046 	8.29092e-176
0.4053 	1.40648e-178
0.406 	1.28998e-178
0.4067 	1.09859e-178
0.4074 	8.65598e-179
0.4081 	6.32602e-179
0.4088 	3.99606e-179
0.4095 	1.6661e-179
0.4102 	1.98883e-182
0.4109 	1.82602e-182
0.4116 	1.5818e-182
0.4123 	1.25618e-182
0.413 	9.30564e-183
0.4137 	6.04945e-183
0.4144 	2.79326e-183
0.4151 	2.47861e-186
0.4158 	2.27809e-186
0.4165 	2.00593e-186
0.4172 	1.60479e-186
0.4179 	1.20365e-186
0.4186 	8.02512e-187
0.4193 	4.01374e-187
0.42 	2.68686e-190
0.4207 	2.47696e-190
0.4214 	2.21818e-190
0.4221 	1.78683e-190
0.4228 	1.35549e-190
0.4235 	9.24148e-191
0.4242 	4.92805e-191
0.4249 	6.14626e-192
0.4256 	-9.36502e-195
0.4263 	-6.27691e-195
0.427 	-5.14224e-195
0.4277 	-4.00758e-195
0.4284 	-2.87291e-195
0.4291 	-1.73824e-195
0.4298 	-6.03572e-196
0.4305 	-2.53001e-196
0.4312 	-2.15966e-196
0.4319 	-1.76685e-196
0.4326 	-1.37232e-196
0.4333 	-9.77782e-197
0.434 	-5.83246e-197
0.4347 	-1.88709e-197
0.4354 	-1.82346e-198
0.4361 	-1.57498e-198
0.4368 	-1.30048e-198
0.4375 	-1.01888e-198
0.4382 	-7.37291e-199
0.4389 	-4.55697e-199
0.4396 	-1.74103e-199
0.4403 	-1.25281e-200
0.441 	-1.09258e-200
0.4417 	-9.12134e-201
0.4424 	-7.20464e-201
0.4431 	-5.28794e-201
0.4438 	-3.37123e-201
0.4445 	-1.45453e-201
0.4452 	-8.2762e-203
0.4459 	-7.27801e-203
0.4466 	-6.1512e-203
0.4473 	-4.89575e-203
0.448 	-3.64031e-203
0.4487 	-2.38487e-203
0.4494 	-1.12942e-203
0.4501 	-5.25733e-205
0.4508 	-4.65656e-205
0.4515 	-3.9878e-205
0.4522 	-3.19665e-205
0.4529 	-2.4055e-205
0.4536 	-1.61435e-205
0.4543 	-8.23197e-206
0.455 	-3.37985e-207
0.4557 	-2.86195e-207
0.4564 	-2.48475e-207
0.4571 	-2.00521e-207
0.4578 	-1.52567e-207
0.4585 	-1.04613e-207
0.4592 	-5.66584e-208
0.4599 	-8.70426e-209
0.4606 	-1.6896e-209
0.4613 	-1.48754e-209
0.462 	-1.20806e-209
0.4627 	-9.28587e-210
0.4634 	-6.49113e-210
0.4641 	-3.69638e-210
0.4648 	-9.01635e-211
0.4655 	-9.57834e-212
0.4662 	-8.5158e-212
0.4669 	-6.98655e-212
0.4676 	-5.4214e-212
0.4683 	-3.85625e-212
0.469 	-2.2911e-212
0.4697 	-7.25949e-213
0.4704 	-5.21307e-214
0.4711 	-4.65788e-214
0.4718 	-3.87737e-214
0.4725 	-3.0354e-214
0.4732 	-2.19343e-214
0.4739 	-1.35146e-214
0.4746 	-5.09488e-215
0.4753 	-2.72361e-216
0.476 	-2.444e-216
0.4767 	-2.06453e-216
0.4774 	-1.62957e-216
0.4781 	-1.19461e-216
0.4788 	-7.59651e-217
0.4795 	-3.24692e-217
0.4802 	-1.3658e-218
0.4809 	-1.23015e-218
0.4816 	-1.05446e-218
0.4823 	-8.38731e-219
0.483 	-6.23004e-219
0.4837 	-4.07277e-219
0.4844 	-1.9155e-219
0.4851 	-6.56964e-221
0.4858 	-5.93634e-221
0.4865 	-5.16263e-221
0.4872 	-4.13614e-221
0.4879 	-3.10966e-221
0.4886 	-2.08318e-221
0.4893 	-1.05669e-221
0.49 	-3.25433e-223
0.4907 	-2.74586e-223
0.4914 	-2.42211e-223
0.4921 	-1.95371e-223
0.4928 	-1.48531e-223
0.4935 	-1.0169e-223
0.4942 	-5.48502e-224
0.4949 	-8.00987e-225
0.4956 	-1.21738e-225
0.4963 	-1.08884e-225
0.497 	-8.83886e-226
0.4977 	-6.78933e-226
0.4984 	-4.7398e-226
0.4991 	-2.69026e-226
0.4998 	-6.40731e-227
0.5005 	-5.17014e-228
0.5012 	-4.66195e-228
0.5019 	-3.8277e-228
0.5026 	-2.96837e-228
0.5033 	-2.10904e-228
0.504 	-1.24971e-228
0.5047 	-3.90386e-229
0.5054 	-2.10241e-230
0.5061 	-1.90041e-230
0.5068 	-1.58599e-230
0.5075 	-1.24091e-230
0.5082 	-8.95829e-231
0.5089 	-5.50751e-231
0.5096 	-2.05672e-231
0.5103 	-8.18557e-233
0.511 	-7.41543e-233
0.5117 	-6.28728e-233
0.5124 	-4.96022e-233
0.5131 	-3.63317e-233
0.5138 	-2.30612e-233
0.5145 	-9.79061e-234
0.5152 	-3.04807e-235
0.5159 	-2.76684e-235
0.5166 	-2.38213e-235
0.5173 	-1.89395e-235
0.518 	-1.40576e-235
0.5187 	-9.17577e-236
0.5194 	-4.29392e-236
0.5201 	-1.08518e-237
0.5208 	-9.86871e-238
0.5215 	-8.62337e-238
0.5222 	-6.90605e-238
0.5229 	-5.18873e-238
0.5236 	-3.47141e-238
0.5243 	-1.75409e-238
0.525 	-4.07742e-240
0.5257 	-3.3637e-240
0.5264 	-2.98159e-240
0.5271 	-2.40413e-240
0.5278 	-1.82667e-240
0.5285 	-1.24921e-240
0.5292 	-6.71749e-241
0.5299 	-9.42878e-242
0.5306 	-1.09452e-242
0.5313 	-9.83672e-243
0.532 	-7.98255e-243
0.5327 	-6.12838e-243
0.5334 	-4.27422e-243
0.5341 	-2.42005e-243
0.5348 	-5.65881e-244
0.5355 	-3.39961e-245
0.5362 	-3.07861e-245
0.5369 	-2.52786e-245
0.5376 	-1.95944e-245
0.5383 	-1.39101e-245
0.539 	-8.22583e-246
0.5397 	-2.54157e-246
0.5404 	-1.00634e-247
0.5411 	-9.12848e-248
0.5418 	-7.62297e-248
0.5425 	-5.96187e-248
0.5432 	-4.30076e-248
0.5439 	-2.63965e-248
0.5446 	-9.78542e-249
0.5453 	-2.83786e-250
0.546 	-2.57825e-250
0.5467 	-2.1882e-250
0.5474 	-1.72568e-250
0.5481 	-1.26317e-250
0.5488 	-8.00652e-251
0.5495 	-3.38135e-251
0.5502 	-7.61323e-253
0.5509 	-6.92708e-253
0.5516 	-5.97132e-253
0.5523 	-4.74596e-253
0.553 	-3.52059e-253
0.5537 	-2.29523e-253
0.5544 	-1.06987e-253
0.5551 	-1.94228e-255
0.5558 	-1.76973e-255
0.5565 	-1.54853e-255
0.5572 	-1.23976e-255
0.5579 	-9.30988e-256
0.5586 	-6.22217e-256
0.5593 	-3.13446e-256
0.56 	-5.41393e-258
0.5607 	-4.29132e-258
0.5614 	-3.80929e-258
0.5621 	-3.07066e-258
0.5628 	-2.33203e-258
0.5635 	-1.59339e-258
0.5642 	-8.54758e-259
0.5649 	-1.16124e-259
0.5656 	-9.87344e-261
0.5663 	-8.88633e-261
0.567 	-7.20944e-261
0.5677 	-5.53255e-261
0.5684 	-3.85566e-261
0.5691 	-2.17878e-261
0.5698 	-5.01887e-262
0.5705 	-2.15017e-263
0.5712 	-1.94968e-263
0.5719 	-1.6007e-263
0.5726 	-1.24029e-263
0.5733 	-8.79891e-264
0.574 	-5.19488e-264
0.5747 	-1.59084e-264
0.5754 	-4.42698e-266
0.5761 	-4.01996e-266
0.5768 	-3.35724e-266
0.5775 	-2.62478e-266
0.5782 	-1.89233e-266
0.5789 	-1.15987e-266
0.5796 	-4.27411e-267
0.5803 	-8.59926e-269
0.581 	-7.81946e-269
0.5817 	-6.63796e-269
0.5824 	-5.2333e-269
0.5831 	-3.82864e-269
0.5838 	-2.42398e-269
0.5845 	-1.01933e-269
0.5852 	-1.57298e-271
0.5859 	-1.43225e-271
0.5866 	-1.23503e-271
0.5873 	-9.81315e-272
0.588 	-7.27604e-272
0.5887 	-4.73892e-272
0.5894 	-2.20181e-272
0.5901 	-2.70382e-274
0.5908 	-2.46509e-274
0.5915 	-2.1578e-274
0.5922 	-1.7271e-274
0.5929 	-1.2964e-274
0.5936 	-8.65707e-275
0.5943 	-4.35011e-275
0.595 	-5.36689e-277
0.5957 	-3.97602e-277
0.5964 	-3.53088e-277
0.5971 	-2.84557e-277
0.5978 	-2.16026e-277
0.5985 	-1.47495e-277
0.5992 	-7.89633e-278
0.5999 	-1.04321e-278
0.6006 	-6.0007e-280
0.6013 	-5.40315e-280
0.602 	-4.38261e-280
0.6027 	-3.36208e-280
0.6034 	-2.34155e-280
0.6041 	-1.32102e-280
0.6048 	-3.00484e-281
0.6055 	-8.44163e-283
0.6062 	-7.65758e-283
0.6069 	-6.28596e-283
0.6076 	-4.86914e-283
0.6083 	-3.45232e-283
0.609 	-2.0355e-283
0.6097 	-6.18678e-284
0.6104 	-1.10281e-285
0.6111 	-1.00175e-285
0.6118 	-8.36548e-286
0.6125 	-6.53852e-286
0.6132 	-4.71156e-286
0.6139 	-2.88461e-286
0.6146 	-1.05765e-286
0.6153 	-1.33329e-288
0.616 	-1.21272e-288
0.6167 	-1.02948e-288
0.6174 	-8.11424e-289
0.6181 	-5.93368e-289
0.6188 	-3.75312e-289
0.6195 	-1.57256e-289
0.6202 	-1.48495e-291
0.6209 	-1.3524e-291
0.6216 	-1.16622e-291
0.6223 	-9.2643e-292
0.623 	-6.86636e-292
0.6237 	-4.46842e-292
0.6244 	-2.07049e-292
0.6251 	-1.51557e-294
0.6258 	-1.38201e-294
0.6265 	-1.20983e-294
0.6272 	-9.68143e-295
0.6279 	-7.26454e-295
0.6286 	-4.84765e-295
0.6293 	-2.43075e-295
0.63 	-1.9738e-297
0.6307 	-1.28669e-297
0.6314 	-1.14276e-297
0.6321 	-9.20783e-298
0.6328 	-6.98803e-298
0.6335 	-4.76822e-298
0.6342 	-2.54842e-298
0.6349 	-3.28615e-299
0.6356 	-1.08425e-300
0.6363 	-9.76406e-301
0.637 	-7.91843e-301
0.6377 	-6.07279e-301
0.6384 	-4.22716e-301
0.6391 	-2.38153e-301
0.6398 	-5.35892e-302
0.6405 	-8.20426e-304
0.6412 	-7.44319e-304
0.6419 	-6.10908e-304
0.6426 	-4.73089e-304
0.6433 	-3.35271e-304
0.644 	-1.97452e-304
0.6447 	-5.9633e-305
0.6454 	-5.52305e-307
0.6461 	-5.01745e-307
0.6468 	-4.18959e-307
0.6475 	-3.27384e-307
0.6482 	-2.35809e-307
0.6489 	-1.44234e-307
0.6496 	-5.26594e-308
0.6503 	-3.2715e-310
0.651 	-2.9759e-310
0.6517 	-2.52609e-310
0.6524 	-1.99061e-310
0.6531 	-1.45513e-310
0.6538 	-9.19644e-311
0.6545 	-3.84162e-311
0.6552 	-1.68345e-313
0.6559 	-1.53329e-313
0.6566 	-1.32217e-313
0.6573 	-1.05011e-313
0.658 	-7.78045e-314
0.6587 	-5.05982e-314
0.6594 	-2.33918e-314
0.6601 	-7.38535e-317
0.6608 	-6.73854e-317
0.6615 	-5.90132e-317
0.6622 	-4.72135e-317
0.6629 	-3.54138e-317
0.6636 	-2.36141e-317
0.6643 	-1.18144e-317
0.665 	-4.09827e-320
0.6657 	-1.44959e-320
0.6664 	-1.28754e-320
0.6671 	-1.03754e-320
0.6678 	-7.87047e-321
0.6685 	-5.36555e-321
0.6692 	-2.86064e-321
0.6699 	-3.55727e-322
0.6706 	0
0.6713 	0
0.672 	0
0.6727 	0
0.6734 	0
0.6741 	0
0.6748 	0
0.6755 	0
0.6762 	0
0.6769 	0
0.6776 	0
0.6783 	0
0.679 	0
0.6797 	0
0.6804 	0
0.6811 	0
0.6818 	0
0.6825 	0
0.6832 	0
0.6839 	0
0.6846 	0
0.6853 	0
0.686 	0
0.6867 	0
0.6874 	0
0.6881 	0
0.6888 	0
0.6895 	0
0.6902 	0
0.6909 	0
0.6916 	0
0.6923 	0
0.693 	0
0.6937 	0
0.6944 	0
0.6951 	0
0.6958 	0
0.6965 	0
0.6972 	0
0.6979 	0
0.6986 	0
0.6993 	0
0.7 	0
