0 	1
0.0007 	1
0.0014 	1
0.0021 	1
0.0028 	1
0.0035 	1
0.0042 	1
0.0049 	1
0.0056 	1
0.0063 	1
0.007 	1
0.0077 	1
0.0084 	1
0.0091 	1
0.0098 	1
0.0105 	1
0.0112 	1
0.0119 	1
0.0126 	1
0.0133 	1
0.014 	1
0.0147 	1
0.0154 	1
0.0161 	1
0.0168 	1
0.0175 	1
0.0182 	1
0.0189 	1
0.0196 	1
0.0203 	1
0.021 	1
0.0217 	1
0.0224 	1
0.0231 	1
0.0238 	1
0.0245 	1
0.0252 	1
0.0259 	1
0.0266 	1
0.0273 	1
0.028 	1
0.0287 	1
0.0294 	1
0.0301 	1
0.0308 	1
0.0315 	1
0.0322 	1
0.0329 	1
0.0336 	1
0.0343 	1
0.035 	1
0.0357 	1
0.0364 	1
0.0371 	1
0.0378 	1
0.0385 	1
0.0392 	1
0.0399 	1
0.0406 	1
0.0413 	1
0.042 	1
0.0427 	1
0.0434 	1
0.0441 	1
0.0448 	1
0.0455 	1
0.0462 	1
0.0469 	1
0.0476 	1
0.0483 	1
0.049 	1
0.0497 	1
0.0504 	1
0.0511 	1
0.0518 	1
0.0525 	1
0.0532 	1
0.0539 	1
0.0546 	1
0.0553 	1
0.056 	1
0.0567 	1
0.0574 	1
0.0581 	1
0.0588 	1
0.0595 	1
0.0602 	1
0.0609 	1
0.0616 	1
0.0623 	1
0.063 	1
0.0637 	1
0.0644 	1
0.0651 	1
0.0658 	1
0.0665 	1
0.0672 	1
0.0679 	1
0.0686 	1
0.0693 	1
0.07 	1
0.0707 	1
0.0714 	1
0.0721 	1
0.0728 	1
0.0735 	1
0.0742 	1
0.0749 	1
0.0756 	1
0.0763 	1
0.077 	1
0.0777 	1
0.0784 	1
0.0791 	1
0.0798 	1
0.0805 	1
0.0812 	1
0.0819 	1
0.0826 	1
0.0833 	1
0.084 	1
0.0847 	1
0.0854 	1
0.0861 	1
0.0868 	1
0.0875 	1
0.0882 	1
0.0889 	1
0.0896 	1
0.0903 	1
0.091 	1
0.0917 	1
0.0924 	1
0.0931 	1
0.0938 	1
0.0945 	1
0.0952 	1
0.0959 	1
0.0966 	1
0.0973 	1
0.098 	1
0.0987 	1
0.0994 	1
0.1001 	1
0.1008 	1
0.1015 	1
0.1022 	1
0.1029 	1
0.1036 	1
0.1043 	1
0.105 	1
0.1057 	1
0.1064 	1
0.1071 	1
0.1078 	1
0.1085 	1
0.1092 	1
0.1099 	1
0.1106 	1
0.1113 	1
0.112 	1
0.1127 	1
0.1134 	1
0.1141 	1
0.1148 	1
0.1155 	1
0.1162 	1
0.1169 	1
0.1176 	1
0.1183 	1
0.119 	1
0.1197 	1
0.1204 	1
0.1211 	1
0.1218 	1
0.1225 	1
0.1232 	1
0.1239 	1
0.1246 	1
0.1253 	1
0.126 	1
0.1267 	1
0.1274 	1
0.1281 	1
0.1288 	1
0.1295 	1
0.1302 	1
0.1309 	1
0.1316 	1
0.1323 	1
0.133 	1
0.1337 	1
0.1344 	1
0.1351 	1
0.1358 	1
0.1365 	1
0.1372 	1
0.1379 	1
0.1386 	1
0.1393 	1
0.14 	1
0.1407 	1
0.1414 	1
0.1421 	1
0.1428 	1
0.1435 	1
0.1442 	1
0.1449 	1
0.1456 	1
0.1463 	1
0.147 	1
0.1477 	1
0.1484 	1
0.1491 	1
0.1498 	1
0.1505 	1
0.1512 	1
0.1519 	1
0.1526 	1
0.1533 	1
0.154 	1
0.1547 	1
0.1554 	1
0.1561 	1
0.1568 	1
0.1575 	1
0.1582 	1
0.1589 	1
0.1596 	1
0.1603 	1
0.161 	1
0.1617 	1
0.1624 	1
0.1631 	1
0.1638 	1
0.1645 	1
0.1652 	1
0.1659 	1
0.1666 	1
0.1673 	1
0.168 	1
0.1687 	1
0.1694 	1
0.1701 	1
0.1708 	1
0.1715 	1
0.1722 	1
0.1729 	1
0.1736 	1
0.1743 	1
0.175 	1
0.1757 	1
0.1764 	1
0.1771 	1
0.1778 	1
0.1785 	1
0.1792 	1
0.1799 	1
0.1806 	1
0.1813 	1
0.182 	1
0.1827 	1
0.1834 	1
0.1841 	1
0.1848 	1
0.1855 	1
0.1862 	1
0.1869 	1
0.1876 	1
0.1883 	1
0.189 	1
0.1897 	1
0.1904 	1
0.1911 	1
0.1918 	1
0.1925 	1
0.1932 	1
0.1939 	1
0.1946 	1
0.1953 	1
0.196 	1
0.1967 	1
0.1974 	1
0.1981 	1
0.1988 	1
0.1995 	1
0.2002 	1
0.2009 	1
0.2016 	1
0.2023 	1
0.203 	1
0.2037 	1
0.2044 	1
0.2051 	1
0.2058 	1
0.2065 	1
0.2072 	1
0.2079 	1
0.2086 	1
0.2093 	1
0.21 	1
0.2107 	1
0.2114 	1
0.2121 	1
0.2128 	1
0.2135 	1
0.2142 	1
0.2149 	1
0.2156 	1
0.2163 	1
0.217 	1
0.2177 	1
0.2184 	1
0.2191 	1
0.2198 	1
0.2205 	1
0.2212 	1
0.2219 	1
0.2226 	1
0.2233 	0.999999
0.224 	0.999999
0.2247 	0.999999
0.2254 	0.999971
0.2261 	0.99992
0.2268 	0.99987
0.2275 	0.99982
0.2282 	0.99977
0.2289 	0.99972
0.2296 	0.99967
0.2303 	0.998412
0.231 	0.995543
0.2317 	0.992673
0.2324 	0.989803
0.2331 	0.986934
0.2338 	0.984064
0.2345 	0.981194
0.2352 	0.970805
0.2359 	0.9416
0.2366 	0.912394
0.2373 	0.883188
0.238 	0.853981
0.2387 	0.824775
0.2394 	0.795568
0.2401 	0.761543
0.2408 	0.698643
0.2415 	0.635742
0.2422 	0.572842
0.2429 	0.509941
0.2436 	0.447041
0.2443 	0.38414
0.245 	0.321238
0.2457 	0.280641
0.2464 	0.240051
0.2471 	0.199462
0.2478 	0.158872
0.2485 	0.118283
0.2492 	0.0776941
0.2499 	0.0371049
0.2506 	0.027695
0.2513 	0.0234729
0.252 	0.0192512
0.2527 	0.0150295
0.2534 	0.0108078
0.2541 	0.00658614
0.2548 	0.00236446
0.2555 	0.00104931
0.2562 	0.00089549
0.2569 	0.000741689
0.2576 	0.000587889
0.2583 	0.000434089
0.259 	0.000280289
0.2597 	0.000126489
0.2604 	5.60138e-05
0.2611 	4.79766e-05
0.2618 	3.99403e-05
0.2625 	3.19043e-05
0.2632 	2.38682e-05
0.2639 	1.58322e-05
0.2646 	7.79618e-06
0.2653 	3.02184e-06
0.266 	2.59246e-06
0.2667 	2.16315e-06
0.2674 	1.73387e-06
0.2681 	1.30459e-06
0.2688 	8.75305e-07
0.2695 	4.46024e-07
0.2702 	1.34019e-07
0.2709 	1.14878e-07
0.2716 	9.57409e-08
0.2723 	7.66084e-08
0.273 	5.74758e-08
0.2737 	3.83433e-08
0.2744 	1.92107e-08
0.2751 	2.75961e-09
0.2758 	2.36659e-09
0.2765 	1.97368e-09
0.2772 	1.58097e-09
0.2779 	1.18825e-09
0.2786 	7.95532e-10
0.2793 	4.02816e-10
0.28 	1.01931e-11
0.2807 	8.76573e-12
0.2814 	7.33893e-12
0.2821 	5.91343e-12
0.2828 	4.48793e-12
0.2835 	3.06243e-12
0.2842 	1.63693e-12
0.2849 	2.11433e-13
0.2856 	7.15664e-15
0.2863 	6.01741e-15
0.287 	4.87952e-15
0.2877 	3.74163e-15
0.2884 	2.60373e-15
0.2891 	1.46584e-15
0.2898 	3.27946e-16
0.2905 	2.79701e-18
0.2912 	2.36175e-18
0.2919 	1.92695e-18
0.2926 	1.49218e-18
0.2933 	1.05741e-18
0.294 	6.22636e-19
0.2947 	1.87866e-19
0.2954 	1.51006e-21
0.2961 	1.28014e-21
0.2968 	1.05035e-21
0.2975 	8.20602e-22
0.2982 	5.90853e-22
0.2989 	3.61104e-22
0.2996 	1.31355e-22
0.3003 	1.17815e-25
0.301 	1.00264e-25
0.3017 	8.2717e-26
0.3024 	6.51719e-26
0.3031 	4.76268e-26
0.3038 	3.00817e-26
0.3045 	1.25366e-26
0.3052 	8.29454e-30
0.3059 	7.08516e-30
0.3066 	5.87566e-30
0.3073 	4.66602e-30
0.308 	3.45639e-30
0.3087 	2.24675e-30
0.3094 	1.03712e-30
0.3101 	5.6865e-34
0.3108 	4.87464e-34
0.3115 	4.06256e-34
0.3122 	3.25008e-34
0.3129 	2.43761e-34
0.3136 	1.62513e-34
0.3143 	8.12655e-35
0.315 	3.78303e-38
0.3157 	3.25387e-38
0.3164 	2.72466e-38
0.3171 	2.19489e-38
0.3178 	1.66511e-38
0.3185 	1.13534e-38
0.3192 	6.05565e-39
0.3199 	7.57911e-40
0.3206 	2.10194e-42
0.3213 	1.76803e-42
0.322 	1.43355e-42
0.3227 	1.09907e-42
0.3234 	7.64591e-43
0.3241 	4.3011e-43
0.3248 	9.56292e-44
0.3255 	1.30722e-46
0.3262 	1.10428e-46
0.3269 	9.00893e-47
0.3276 	6.97473e-47
0.3283 	4.94054e-47
0.329 	2.90634e-47
0.3297 	8.72146e-48
0.3304 	7.79663e-51
0.3311 	6.61291e-51
0.3318 	5.42659e-51
0.3325 	4.23956e-51
0.3332 	3.05254e-51
0.3339 	1.86551e-51
0.3346 	6.78483e-52
0.3353 	4.44379e-55
0.336 	3.78364e-55
0.3367 	3.12214e-55
0.3374 	2.45989e-55
0.3381 	1.79763e-55
0.3388 	1.13538e-55
0.3395 	4.73127e-56
0.3402 	2.41422e-59
0.3409 	2.06312e-59
0.3416 	1.7114e-59
0.3423 	1.35907e-59
0.343 	1.00673e-59
0.3437 	6.54386e-60
0.3444 	3.02046e-60
0.3451 	1.24873e-63
0.3458 	1.07087e-63
0.3465 	8.9276e-64
0.3472 	7.14212e-64
0.3479 	5.35663e-64
0.3486 	3.57115e-64
0.3493 	1.78566e-64
0.35 	6.15116e-68
0.3507 	5.29251e-68
0.3514 	4.43327e-68
0.3521 	3.57126e-68
0.3528 	2.70925e-68
0.3535 	1.84724e-68
0.3542 	9.85226e-69
0.3549 	1.23216e-69
0.3556 	2.49415e-72
0.3563 	2.09869e-72
0.357 	1.70165e-72
0.3577 	1.3046e-72
0.3584 	9.07559e-73
0.3591 	5.10514e-73
0.3598 	1.13469e-73
0.3605 	1.12324e-76
0.3612 	9.49165e-77
0.3619 	7.74367e-77
0.3626 	5.99512e-77
0.3633 	4.24657e-77
0.364 	2.49802e-77
0.3647 	7.49476e-78
0.3654 	4.84629e-81
0.3661 	4.11159e-81
0.3668 	3.37422e-81
0.3675 	2.63611e-81
0.3682 	1.89801e-81
0.3689 	1.15991e-81
0.3696 	4.21806e-82
0.3703 	2.00834e-85
0.371 	1.71035e-85
0.3717 	1.41146e-85
0.3724 	1.11206e-85
0.3731 	8.12662e-86
0.3738 	5.13264e-86
0.3745 	2.13866e-86
0.3752 	8.01476e-90
0.3759 	6.85029e-90
0.3766 	5.68304e-90
0.3773 	4.513e-90
0.378 	3.34297e-90
0.3787 	2.17294e-90
0.3794 	1.00291e-90
0.3801 	3.00469e-94
0.3808 	2.57187e-94
0.3815 	2.13637e-94
0.3822 	1.69608e-94
0.3829 	1.25578e-94
0.3836 	8.15479e-95
0.3843 	3.75181e-95
0.385 	-6.5071e-96
0.3857 	-5.6148e-96
0.3864 	-4.87487e-96
0.3871 	-4.67124e-96
0.3878 	-4.46761e-96
0.3885 	-4.26398e-96
0.3892 	-4.06035e-96
0.3899 	-3.85672e-96
0.3906 	-3.26695e-96
0.3913 	-2.64772e-96
0.392 	-2.48217e-96
0.3927 	-2.31663e-96
0.3934 	-2.15108e-96
0.3941 	-1.98553e-96
0.3948 	-1.81999e-96
0.3955 	-1.52836e-96
0.3962 	-1.18629e-96
0.3969 	-1.07785e-96
0.3976 	-9.87387e-97
0.3983 	-8.96923e-97
0.399 	-8.06459e-97
0.3997 	-7.15995e-97
0.4004 	-5.96941e-97
0.4011 	-4.56441e-97
0.4018 	-3.96168e-97
0.4025 	-3.57775e-97
0.4032 	-3.19382e-97
0.4039 	-2.80989e-97
0.4046 	-2.42596e-97
0.4053 	-2.00081e-97
0.406 	-1.52066e-97
0.4067 	-1.26262e-97
0.4074 	-1.12797e-97
0.4081 	-9.93323e-98
0.4088 	-8.58672e-98
0.4095 	-7.24022e-98
0.4102 	-5.8748e-98
0.4109 	-4.46185e-98
0.4116 	-3.553e-98
0.4123 	-3.14824e-98
0.413 	-2.74349e-98
0.4137 	-2.33873e-98
0.4144 	-1.93398e-98
0.4151 	-1.53476e-98
0.4158 	-1.16859e-98
0.4165 	-8.95044e-99
0.4172 	-7.88242e-99
0.4179 	-6.8144e-99
0.4186 	-5.74639e-99
0.4193 	-4.67837e-99
0.42 	-3.61282e-99
0.4207 	-2.76139e-99
0.4214 	-2.04038e-99
0.4221 	-1.78882e-99
0.4228 	-1.53725e-99
0.4235 	-1.28569e-99
0.4242 	-1.03413e-99
0.4249 	-7.82569e-100
0.4256 	-5.93888e-100
0.4263 	-4.24569e-100
0.427 	-3.71018e-100
0.4277 	-3.17467e-100
0.4284 	-2.63916e-100
0.4291 	-2.10365e-100
0.4298 	-1.56814e-100
0.4305 	-1.17101e-100
0.4312 	-8.29175e-101
0.4319 	-7.08165e-101
0.4326 	-6.04141e-101
0.4333 	-5.00117e-101
0.434 	-3.96093e-101
0.4347 	-2.9207e-101
0.4354 	-2.13007e-101
0.4361 	-1.52647e-101
0.4368 	-1.25112e-101
0.4375 	-1.0653e-101
0.4382 	-8.79472e-102
0.4389 	-6.93647e-102
0.4396 	-5.07821e-102
0.4403 	-3.59344e-102
0.441 	-2.6062e-102
0.4417 	-2.05611e-102
0.4424 	-1.74888e-102
0.4431 	-1.44166e-102
0.4438 	-1.13444e-102
0.4445 	-8.27211e-103
0.4452 	-5.64839e-103
0.4459 	-4.14484e-103
0.4466 	-3.15675e-103
0.4473 	-2.68413e-103
0.448 	-2.21151e-103
0.4487 	-1.73889e-103
0.4494 	-1.26627e-103
0.4501 	-8.30618e-104
0.4508 	-6.16442e-104
0.4515 	-4.54486e-104
0.4522 	-3.86524e-104
0.4529 	-3.18562e-104
0.4536 	-2.506e-104
0.4543 	-1.82638e-104
0.455 	-1.14752e-104
0.4557 	-8.60388e-105
0.4564 	-6.15663e-105
0.4571 	-5.23949e-105
0.4578 	-4.32234e-105
0.4585 	-3.4052e-105
0.4592 	-2.48806e-105
0.4599 	-1.57092e-105
0.4606 	-1.1306e-105
0.4613 	-7.87088e-106
0.462 	-6.70528e-106
0.4627 	-5.53968e-106
0.4634 	-4.37408e-106
0.4641 	-3.20848e-106
0.4648 	-2.04289e-106
0.4655 	-1.40292e-106
0.4662 	-9.73004e-107
0.4669 	-8.12336e-107
0.4676 	-6.7238e-107
0.4683 	-5.32424e-107
0.469 	-3.92468e-107
0.4697 	-2.52511e-107
0.4704 	-1.64819e-107
0.4711 	-1.16293e-107
0.4718 	-9.33846e-108
0.4725 	-7.74633e-108
0.4732 	-6.15421e-108
0.4739 	-4.56208e-108
0.4746 	-2.96995e-108
0.4753 	-1.8374e-108
0.476 	-1.31713e-108
0.4767 	-1.02075e-108
0.4774 	-8.48762e-109
0.4781 	-6.76772e-109
0.4788 	-5.04781e-109
0.4795 	-3.32791e-109
0.4802 	-1.94792e-109
0.4809 	-1.41692e-109
0.4816 	-1.063e-109
0.4823 	-8.86177e-110
0.483 	-7.09353e-110
0.4837 	-5.32529e-110
0.4844 	-3.55705e-110
0.4851 	-1.9678e-110
0.4858 	-1.45085e-110
0.4865 	-1.0566e-110
0.4872 	-8.83232e-111
0.4879 	-7.09862e-111
0.4886 	-5.36492e-111
0.4893 	-3.63122e-111
0.49 	-1.89884e-111
0.4907 	-1.41682e-111
0.4914 	-1.00414e-111
0.4921 	-8.41727e-112
0.4928 	-6.79317e-112
0.4935 	-5.16907e-112
0.4942 	-3.54497e-112
0.4949 	-1.92087e-112
0.4956 	-1.32196e-112
0.4963 	-9.13838e-113
0.497 	-7.68222e-113
0.4977 	-6.22606e-113
0.4984 	-4.76991e-113
0.4991 	-3.31375e-113
0.4998 	-1.85759e-113
0.5005 	-1.18053e-113
0.5012 	-8.148e-114
0.5019 	-6.72455e-114
0.5026 	-5.47294e-114
0.5033 	-4.22133e-114
0.504 	-2.96972e-114
0.5047 	-1.7181e-114
0.5054 	-1.01054e-114
0.5061 	-7.10704e-115
0.5068 	-5.65302e-115
0.5075 	-4.6202e-115
0.5082 	-3.58739e-115
0.5089 	-2.55457e-115
0.5096 	-1.52175e-115
0.5103 	-8.30428e-116
0.511 	-5.94072e-116
0.5117 	-4.56987e-116
0.5124 	-3.75051e-116
0.5131 	-2.93115e-116
0.5138 	-2.11179e-116
0.5145 	-1.29244e-116
0.5152 	-6.56053e-117
0.5159 	-4.76679e-117
0.5166 	-3.55704e-117
0.5173 	-2.93128e-117
0.518 	-2.30553e-117
0.5187 	-1.67977e-117
0.5194 	-1.05401e-117
0.5201 	-4.98998e-118
0.5208 	-3.67756e-118
0.5215 	-2.66932e-118
0.5222 	-2.20861e-118
0.5229 	-1.74791e-118
0.5236 	-1.2872e-118
0.5243 	-8.26498e-119
0.525 	-3.66063e-119
0.5257 	-2.73177e-119
0.5264 	-1.93337e-119
0.5271 	-1.606e-119
0.5278 	-1.27862e-119
0.5285 	-9.51252e-120
0.5292 	-6.23879e-120
0.5299 	-2.96506e-120
0.5306 	-1.95589e-120
0.5313 	-1.35267e-120
0.532 	-1.12796e-120
0.5327 	-9.03247e-121
0.5334 	-6.78533e-121
0.5341 	-4.5382e-121
0.5348 	-2.29106e-121
0.5355 	-1.3514e-121
0.5362 	-9.34235e-122
0.5369 	-7.65939e-122
0.5376 	-6.16787e-122
0.5383 	-4.67635e-122
0.539 	-3.18483e-122
0.5397 	-1.69331e-122
0.5404 	-9.02094e-123
0.5411 	-6.35704e-123
0.5418 	-5.03331e-123
0.5425 	-4.07509e-123
0.5432 	-3.11687e-123
0.5439 	-2.15864e-123
0.5446 	-1.20042e-123
0.5453 	-5.82386e-124
0.546 	-4.17578e-124
0.5467 	-3.20378e-124
0.5474 	-2.60737e-124
0.5481 	-2.01097e-124
0.5488 	-1.41456e-124
0.5495 	-8.18155e-125
0.5502 	-3.63997e-125
0.5509 	-2.65127e-125
0.5516 	-1.97695e-125
0.5523 	-1.617e-125
0.553 	-1.25705e-125
0.5537 	-8.971e-126
0.5544 	-5.37152e-126
0.5551 	-2.20459e-126
0.5558 	-1.62896e-126
0.5565 	-1.18362e-126
0.5572 	-9.72787e-127
0.5579 	-7.61959e-127
0.5586 	-5.5113e-127
0.5593 	-3.40302e-127
0.56 	-1.29578e-127
0.5607 	-9.69564e-128
0.5614 	-6.88106e-128
0.5621 	-5.68167e-128
0.5628 	-4.48229e-128
0.5635 	-3.2829e-128
0.5642 	-2.08351e-128
0.5649 	-8.84128e-129
0.5656 	-5.59621e-129
0.5663 	-3.88744e-129
0.567 	-3.2242e-129
0.5677 	-2.56096e-129
0.5684 	-1.89773e-129
0.5691 	-1.23449e-129
0.5698 	-5.71252e-130
0.5705 	-3.13531e-130
0.5712 	-2.17865e-130
0.5719 	-1.77903e-130
0.5726 	-1.42226e-130
0.5733 	-1.06549e-130
0.574 	-7.0872e-131
0.5747 	-3.51949e-131
0.5754 	-1.70653e-131
0.5761 	-1.20862e-131
0.5768 	-9.55135e-132
0.5775 	-7.68316e-132
0.5782 	-5.81497e-132
0.5789 	-3.94678e-132
0.5796 	-2.07859e-132
0.5803 	-9.03166e-133
0.581 	-6.50727e-133
0.5817 	-4.99309e-133
0.5824 	-4.04015e-133
0.5831 	-3.08721e-133
0.5838 	-2.13427e-133
0.5845 	-1.18133e-133
0.5852 	-4.65173e-134
0.5859 	-3.40416e-134
0.5866 	-2.54345e-134
0.5873 	-2.06961e-134
0.588 	-1.59577e-134
0.5887 	-1.12193e-134
0.5894 	-6.48084e-135
0.5901 	-2.33416e-135
0.5908 	-1.73254e-135
0.5915 	-1.26368e-135
0.5922 	-1.03376e-135
0.5929 	-8.03849e-136
0.5936 	-5.73935e-136
0.5943 	-3.44022e-136
0.595 	-1.14208e-136
0.5957 	-8.58313e-137
0.5964 	-6.12511e-137
0.5971 	-5.03632e-137
0.5978 	-3.94752e-137
0.5985 	-2.85873e-137
0.5992 	-1.76994e-137
0.5999 	-6.8115e-138
0.6006 	-4.14247e-138
0.6013 	-2.89814e-138
0.602 	-2.3946e-138
0.6027 	-1.89107e-138
0.6034 	-1.38753e-138
0.6041 	-8.8399e-139
0.6048 	-3.80451e-139
0.6055 	-1.94926e-139
0.6062 	-1.36488e-139
0.6069 	-1.11184e-139
0.6076 	-8.84292e-140
0.6083 	-6.56741e-140
0.609 	-4.2919e-140
0.6097 	-2.01639e-140
0.6104 	-8.94946e-141
0.6111 	-6.38392e-141
0.6118 	-5.04423e-141
0.6125 	-4.03886e-141
0.6132 	-3.03348e-141
0.6139 	-2.02811e-141
0.6146 	-1.02274e-141
0.6153 	-4.01187e-142
0.616 	-2.91014e-142
0.6167 	-2.23733e-142
0.6174 	-1.80281e-142
0.6181 	-1.36829e-142
0.6188 	-9.33767e-143
0.6195 	-4.99245e-143
0.6202 	-1.75715e-143
0.6209 	-1.29412e-143
0.6216 	-9.70707e-144
0.6223 	-7.86901e-144
0.623 	-6.03094e-144
0.6237 	-4.19288e-144
0.6244 	-2.35481e-144
0.6251 	-7.52414e-145
0.6258 	-5.61872e-145
0.6265 	-4.12189e-145
0.6272 	-3.36052e-145
0.6279 	-2.59915e-145
0.6286 	-1.83778e-145
0.6293 	-1.07642e-145
0.63 	-3.15352e-146
0.6307 	-2.38362e-146
0.6314 	-1.71386e-146
0.6321 	-1.40489e-146
0.6328 	-1.09591e-146
0.6335 	-7.86932e-147
0.6342 	-4.77955e-147
0.6349 	-1.68978e-147
0.6356 	-9.88751e-148
0.6363 	-6.98143e-148
0.637 	-5.75239e-148
0.6377 	-4.52336e-148
0.6384 	-3.29432e-148
0.6391 	-2.06528e-148
0.6398 	-8.36249e-149
0.6405 	-4.01311e-149
0.6412 	-2.83721e-149
0.6419 	-2.30805e-149
0.6426 	-1.82863e-149
0.6433 	-1.34922e-149
0.644 	-8.69809e-150
0.6447 	-3.90396e-150
0.6454 	-1.59475e-150
0.6461 	-1.14783e-150
0.6468 	-9.07904e-151
0.6475 	-7.24437e-151
0.6482 	-5.4097e-151
0.6489 	-3.57503e-151
0.6496 	-1.74036e-151
0.6503 	-6.20845e-152
0.651 	-4.54136e-152
0.6517 	-3.50297e-152
0.6524 	-2.81385e-152
0.6531 	-2.12472e-152
0.6538 	-1.4356e-152
0.6545 	-7.46473e-153
0.6552 	-2.36915e-153
0.6559 	-1.75861e-153
0.6566 	-1.32626e-153
0.6573 	-1.0721e-153
0.658 	-8.17936e-154
0.6587 	-5.63774e-154
0.6594 	-3.09612e-154
0.6601 	-8.86645e-155
0.6608 	-6.67022e-155
0.6615 	-4.9295e-155
0.6622 	-4.00868e-155
0.6629 	-3.08787e-155
0.6636 	-2.16706e-155
0.6643 	-1.24624e-155
0.665 	-3.25773e-156
0.6657 	-2.4796e-156
0.6664 	-1.79943e-156
0.6671 	-1.4716e-156
0.6678 	-1.14377e-156
0.6685 	-8.15944e-157
0.6692 	-4.88117e-157
0.6699 	-1.6029e-157
0.6706 	-9.03965e-158
0.6713 	-6.45337e-158
0.672 	-5.30605e-158
0.6727 	-4.15873e-158
0.6734 	-3.01141e-158
0.6741 	-1.86409e-158
0.6748 	-7.16771e-159
0.6755 	-3.23354e-159
0.6762 	-2.31224e-159
0.6769 	-1.87979e-159
0.6776 	-1.48494e-159
0.6783 	-1.09009e-159
0.679 	-6.95237e-160
0.6797 	-3.00387e-160
0.6804 	-1.13545e-160
0.6811 	-8.25909e-161
0.6818 	-6.54556e-161
0.6825 	-5.20891e-161
0.6832 	-3.87227e-161
0.6839 	-2.53562e-161
0.6846 	-1.19897e-161
0.6853 	-3.91556e-162
0.686 	-2.8924e-162
0.6867 	-2.24079e-162
0.6874 	-1.7956e-162
0.6881 	-1.35041e-162
0.6888 	-9.0522e-163
0.6895 	-4.6003e-163
0.6902 	-1.32607e-163
0.6909 	-9.93318e-164
0.6916 	-7.53985e-164
0.6923 	-6.08077e-164
0.693 	-4.6217e-164
0.6937 	-3.16262e-164
0.6944 	-1.70354e-164
0.6951 	-4.37567e-165
0.6958 	-3.28463e-165
0.6965 	-2.41659e-165
0.6972 	-1.94994e-165
0.6979 	-1.48329e-165
0.6986 	-1.01664e-165
0.6993 	-5.49988e-166
0.7 	-8.34998e-167
