0 	1
0.0007 	1
0.0014 	1
0.0021 	1
0.0028 	1
0.0035 	1
0.0042 	1
0.0049 	1
0.0056 	1
0.0063 	1
0.007 	1
0.0077 	1
0.0084 	1
0.0091 	1
0.0098 	1
0.0105 	1
0.0112 	1
0.0119 	1
0.0126 	1
0.0133 	1
0.014 	1
0.0147 	1
0.0154 	1
0.0161 	1
0.0168 	1
0.0175 	1
0.0182 	1
0.0189 	1
0.0196 	1
0.0203 	1
0.021 	1
0.0224 	1
0.0231 	1
0.0238 	1
0.0245 	1
0.0252 	1
0.0259 	1
0.0266 	1
0.0273 	1
0.028 	1
0.0287 	1
0.0294 	1
0.0301 	1
0.0308 	1
0.0315 	1
0.0322 	1
0.0329 	1
0.0336 	1
0.0343 	1
0.035 	1
0.0357 	1
0.0364 	1
0.0371 	1
0.0378 	1
0.0385 	1
0.0392 	1
0.0399 	1
0.0406 	1
0.0413 	1
0.042 	1
0.0427 	1
0.0434 	1
0.0441 	1
0.0448 	1
0.0455 	1
0.0462 	1
0.0469 	1
0.0483 	1
0.049 	1
0.0497 	1
0.0504 	1
0.0511 	1
0.0518 	1
0.0525 	1
0.0532 	1
0.0539 	1
0.0546 	1
0.0553 	1
0.056 	1
0.0567 	1
0.0574 	1
0.0581 	1
0.0588 	1
0.0595 	1
0.0602 	1
0.0609 	1
0.0616 	1
0.0623 	1
0.0637 	1
0.0644 	1
0.0651 	1
0.0658 	1
0.0665 	1
0.0679 	1
0.0686 	1
0.0693 	1
0.07 	1
0.0707 	1
0.0714 	1
0.0721 	1
0.0728 	1
0.0735 	1
0.0742 	1
0.0749 	1
0.0756 	1
0.0763 	1
0.077 	1
0.0777 	1
0.0784 	1
0.0791 	1
0.0798 	1
0.0805 	1
0.0812 	1
0.0819 	1
0.0826 	1
0.0833 	1
0.084 	1
0.0847 	1
0.0854 	1
0.0861 	1
0.0868 	1
0.0875 	1
0.0882 	1
0.0889 	1
0.0896 	1
0.0903 	1
0.091 	1
0.0917 	1
0.0924 	1
0.0931 	1
0.0938 	1
0.0945 	1
0.0952 	1
0.0959 	1
0.0966 	1
0.0973 	1
0.098 	1
0.0987 	1
0.0994 	1
0.1001 	1
0.1008 	1
0.1015 	1
0.1022 	1
0.1029 	1
0.1036 	1
0.1043 	1
0.105 	1
0.1057 	1
0.1064 	1
0.1071 	1
0.1078 	1
0.1085 	1
0.1092 	1
0.1099 	1
0.1106 	1
0.1113 	1
0.112 	1
0.1127 	1
0.1134 	1
0.1141 	1
0.1148 	1
0.1155 	1
0.1162 	1
0.1169 	1
0.1176 	1
0.1183 	1
0.119 	1
0.1197 	1
0.1204 	1
0.1211 	1
0.1218 	1
0.1225 	1
0.1232 	1
0.1239 	1
0.1246 	1
0.1253 	1
0.126 	1
0.1267 	1
0.1281 	1
0.1295 	1
0.1302 	1
0.1309 	1
0.1316 	1
0.133 	1
0.1337 	1
0.1344 	1
0.1351 	1
0.1358 	1
0.1372 	1
0.1379 	1
0.1386 	1
0.1393 	1
0.14 	1
0.1407 	1
0.1414 	1
0.1421 	1
0.1428 	1
0.1435 	1
0.1442 	1
0.1449 	1
0.1456 	1
0.1463 	1
0.147 	1
0.1477 	1
0.1484 	1
0.1491 	1
0.1498 	1
0.1505 	1
0.1512 	1
0.1519 	1
0.1526 	1
0.1533 	1
0.154 	1
0.1547 	1
0.1554 	1
0.1561 	1
0.1568 	1
0.1575 	1
0.1582 	1
0.1589 	1
0.1596 	1
0.1603 	1
0.1617 	1
0.1624 	1
0.1631 	1
0.1638 	1
0.1645 	1
0.1652 	1
0.1659 	1
0.1666 	1
0.168 	1
0.1687 	1
0.1694 	1
0.1701 	1
0.1708 	1
0.1715 	1
0.1722 	1
0.1729 	1
0.1736 	1
0.1743 	1
0.175 	1
0.1757 	1
0.1764 	1
0.1771 	1
0.1778 	1
0.1785 	1
0.1792 	1
0.1799 	1
0.1806 	1
0.1813 	1
0.182 	1
0.1827 	1
0.1834 	1
0.1841 	1
0.1848 	1
0.1855 	1
0.1862 	1
0.1869 	1
0.1876 	1
0.1883 	1
0.189 	1
0.1897 	1
0.1904 	1
0.1911 	1
0.1918 	1
0.1925 	1
0.1932 	1
0.1939 	1
0.1946 	1
0.1953 	1
0.196 	1
0.1967 	1
0.1974 	1
0.1981 	1
0.1988 	1
0.1995 	1
0.2002 	1
0.2009 	1
0.2016 	1
0.2023 	1
0.203 	1
0.2037 	1
0.2044 	1
0.2051 	1
0.2058 	1
0.2065 	1
0.2079 	1
0.2086 	1
0.2093 	1
0.21 	1
0.2107 	1
0.2114 	1
0.2121 	1
0.2128 	1
0.2135 	1
0.2142 	1
0.2149 	1
0.2156 	1
0.2163 	1
0.217 	1
0.2177 	1
0.2191 	1
0.2198 	1
0.2205 	1
0.2212 	1
0.2219 	1
0.2226 	1
0.2233 	1
0.224 	1
0.2247 	1
0.2254 	1
0.2261 	1
0.2268 	1
0.2275 	1
0.2282 	1
0.2289 	1
0.2296 	1
0.2303 	1
0.231 	1
0.2324 	1
0.2331 	1
0.2338 	1
0.2345 	1
0.2352 	1
0.2359 	1
0.2373 	1
0.238 	1
0.2387 	1
0.2394 	1
0.2401 	1
0.2408 	1
0.2415 	1
0.2422 	1
0.2429 	1
0.2436 	1
0.2443 	1
0.245 	1
0.2457 	1
0.2471 	1
0.2485 	1
0.2492 	1
0.2499 	1
0.2506 	1
0.2513 	1
0.252 	1
0.2527 	1
0.2534 	1
0.2541 	1
0.2548 	1
0.2555 	0.999991
0.2562 	0.999979
0.2569 	0.999967
0.2576 	0.999955
0.2583 	0.999942
0.259 	0.99993
0.2597 	0.999918
0.2604 	0.999247
0.2611 	0.998081
0.2618 	0.996916
0.2632 	0.994585
0.2639 	0.993419
0.2646 	0.992254
0.2653 	0.983853
0.2667 	0.947756
0.2674 	0.929708
0.2681 	0.91166
0.2688 	0.893612
0.2695 	0.875563
0.2702 	0.84589
0.2709 	0.787155
0.2716 	0.72842
0.2723 	0.669684
0.273 	0.610949
0.2737 	0.552213
0.2744 	0.493478
0.2751 	0.43583
0.2758 	0.384712
0.2765 	0.333593
0.2772 	0.282475
0.2779 	0.231356
0.2786 	0.180237
0.2793 	0.129119
0.28 	0.0780002
0.2807 	0.0682764
0.2814 	0.0585526
0.2821 	0.0488289
0.2828 	0.0391053
0.2835 	0.0293816
0.2842 	0.019658
0.2849 	0.00993433
0.2856 	0.00803206
0.2863 	0.00743336
0.287 	0.00683469
0.2884 	0.00563734
0.2891 	0.00503867
0.2898 	0.00444
0.2905 	0.00406669
0.2912 	0.00378352
0.2919 	0.00350036
0.2926 	0.0032172
0.2933 	0.00293404
0.294 	0.00265088
0.2947 	0.00236772
0.2954 	0.00213376
0.2961 	0.00193669
0.2968 	0.00173962
0.2975 	0.00154256
0.2982 	0.00134549
0.2989 	0.00114843
0.2996 	0.00095136
0.3003 	0.000801451
0.301 	0.000714418
0.3017 	0.000627388
0.3024 	0.000540359
0.3031 	0.000453331
0.3038 	0.000366303
0.3045 	0.000279274
0.3052 	0.00021016
0.3059 	0.00018583
0.3066 	0.000161502
0.3073 	0.000137175
0.308 	0.000112847
0.3087 	8.85198e-05
0.3094 	6.41923e-05
0.3101 	4.26238e-05
0.3115 	3.2594e-05
0.3129 	2.25648e-05
0.3136 	1.75502e-05
0.3143 	1.25355e-05
0.315 	7.52092e-06
0.3157 	6.58345e-06
0.3164 	5.64597e-06
0.3178 	3.77102e-06
0.3185 	2.83355e-06
0.3192 	1.89608e-06
0.3199 	9.58601e-07
0.3206 	7.31098e-07
0.3213 	6.21923e-07
0.322 	5.12733e-07
0.3227 	4.03542e-07
0.3234 	2.94352e-07
0.3241 	1.85161e-07
0.3248 	7.59707e-08
0.3255 	4.03865e-08
0.3262 	3.42448e-08
0.3269 	2.81007e-08
0.3276 	2.19564e-08
0.3283 	1.58121e-08
0.329 	9.66778e-09
0.3297 	3.52348e-09
0.3304 	8.19822e-10
0.3311 	6.96635e-10
0.3318 	5.73366e-10
0.3325 	4.50075e-10
0.3332 	3.26784e-10
0.3339 	2.03493e-10
0.3346 	8.02024e-11
0.3353 	9.5623e-12
0.336 	9.12327e-12
0.3367 	8.68375e-12
0.3374 	8.24396e-12
0.3381 	7.80418e-12
0.3388 	7.3644e-12
0.3395 	6.92461e-12
0.3402 	6.61135e-12
0.3409 	6.61442e-12
0.3416 	6.6174e-12
0.3423 	6.62028e-12
0.343 	6.62317e-12
0.3437 	6.62606e-12
0.3444 	6.62895e-12
0.3451 	6.66258e-12
0.3458 	6.88063e-12
0.3465 	7.09821e-12
0.3472 	7.31494e-12
0.3486 	7.7484e-12
0.3493 	7.96513e-12
0.35 	8.18186e-12
0.3507 	8.95685e-12
0.3514 	9.73158e-12
0.3528 	1.1279e-11
0.3535 	1.20527e-11
0.3542 	1.28264e-11
0.3549 	1.36001e-11
0.3556 	1.43125e-11
0.3563 	1.50147e-11
0.3577 	1.64219e-11
0.3584 	1.71255e-11
0.3591 	1.78291e-11
0.3598 	1.85327e-11
0.3605 	1.83657e-11
0.3612 	1.78505e-11
0.3619 	1.734e-11
0.3626 	1.68299e-11
0.3633 	1.63197e-11
0.364 	1.58096e-11
0.3647 	1.52994e-11
0.3654 	1.43467e-11
0.3661 	1.30619e-11
0.3668 	1.17778e-11
0.3675 	1.0494e-11
0.3682 	9.21016e-12
0.3689 	7.92632e-12
0.3696 	6.64248e-12
0.3703 	5.59547e-12
0.371 	4.86423e-12
0.3717 	4.13072e-12
0.3724 	3.39594e-12
0.3731 	2.66117e-12
0.3738 	1.92639e-12
0.3745 	1.19161e-12
0.3752 	6.40659e-13
0.3759 	5.4927e-13
0.3766 	4.57338e-13
0.3773 	3.64865e-13
0.378 	2.72392e-13
0.3787 	1.79918e-13
0.3794 	8.74446e-14
0.3801 	8.02308e-15
0.3808 	6.91294e-15
0.3815 	5.79362e-15
0.3822 	4.65774e-15
0.3829 	3.52187e-15
0.3836 	2.386e-15
0.3843 	1.25012e-15
0.385 	1.14248e-16
0.3857 	1.09255e-16
0.3864 	1.04257e-16
0.3871 	9.92418e-17
0.3878 	9.42269e-17
0.3885 	8.92121e-17
0.3892 	8.41972e-17
0.3899 	7.91824e-17
0.3906 	7.37859e-17
0.3913 	6.83253e-17
0.392 	6.28588e-17
0.3927 	5.73923e-17
0.3934 	5.19258e-17
0.3941 	4.64594e-17
0.3948 	4.09929e-17
0.3955 	3.66768e-17
0.3962 	3.2821e-17
0.3969 	2.89485e-17
0.3976 	2.50748e-17
0.3983 	2.12012e-17
0.399 	1.73275e-17
0.3997 	1.34538e-17
0.4004 	1.10105e-17
0.4011 	9.63999e-18
0.4018 	8.26189e-18
0.4025 	6.88172e-18
0.4032 	5.50154e-18
0.4039 	4.12137e-18
0.4046 	2.74119e-18
0.4053 	1.84523e-18
0.406 	1.59489e-18
0.4067 	1.34297e-18
0.4074 	1.09017e-18
0.4081 	8.37377e-19
0.4088 	5.84583e-19
0.4095 	3.31788e-19
0.4102 	1.45384e-19
0.4109 	1.24959e-19
0.4116 	1.04401e-19
0.4123 	8.37087e-20
0.413 	6.30168e-20
0.4137 	4.23249e-20
0.4144 	2.16329e-20
0.4151 	3.82041e-21
0.4165 	2.74523e-21
0.4179 	1.65444e-21
0.4186 	1.10904e-21
0.4193 	5.63648e-22
0.42 	1.82526e-23
0.4207 	1.57441e-23
0.4214 	1.32225e-23
0.4221 	1.06531e-23
0.4228 	8.08364e-24
0.4235 	5.51421e-24
0.4242 	2.94479e-24
0.4249 	3.75366e-25
0.4256 	7.33184e-27
0.4263 	6.19402e-27
0.427 	5.02223e-27
0.4277 	3.85043e-27
0.4284 	2.67863e-27
0.4291 	1.50684e-27
0.4298 	3.3504e-28
0.4305 	2.17664e-31
0.4312 	1.84877e-31
0.4319 	1.50897e-31
0.4326 	1.16824e-31
0.4333 	8.27521e-32
0.434 	4.86797e-32
0.4347 	1.46072e-32
0.4354 	4.4128e-36
0.4361 	3.76064e-36
0.4368 	3.08984e-36
0.4375 	2.41396e-36
0.4382 	1.73808e-36
0.4389 	1.06219e-36
0.4396 	3.8631e-37
0.4403 	8.54066e-41
0.441 	7.30339e-41
0.4417 	6.03815e-41
0.4424 	4.75737e-41
0.4431 	3.47658e-41
0.4438 	2.19579e-41
0.4445 	9.15007e-42
0.4452 	1.5372e-45
0.4459 	1.31903e-45
0.4466 	1.09702e-45
0.4473 	8.71166e-46
0.448 	6.45315e-46
0.4487 	4.19464e-46
0.4494 	1.93613e-46
0.4501 	2.56564e-50
0.4508 	2.20875e-50
0.4515 	1.84737e-50
0.4522 	1.4779e-50
0.4529 	1.10844e-50
0.4536 	7.38972e-51
0.4543 	3.69506e-51
0.455 	4.06612e-55
0.4557 	3.51144e-55
0.4571 	2.37849e-55
0.4578 	1.80439e-55
0.4585 	1.23028e-55
0.4592 	6.5618e-56
0.4599 	8.20762e-57
0.4606 	5.42304e-60
0.4613 	4.58275e-60
0.462 	3.71576e-60
0.4627 	2.84877e-60
0.4634 	1.98178e-60
0.4641 	1.11479e-60
0.4648 	2.47803e-61
0.4655 	8.33176e-65
0.4662 	7.07069e-65
0.4676 	4.46765e-65
0.4683 	3.16462e-65
0.469 	1.8616e-65
0.4697 	5.58578e-66
0.4704 	1.28618e-69
0.4711 	1.09547e-69
0.4718 	8.99932e-70
0.4725 	7.03077e-70
0.4732 	5.06221e-70
0.4739 	3.09366e-70
0.4746 	1.1251e-70
0.4753 	1.99012e-74
0.476 	1.70095e-74
0.4767 	1.40596e-74
0.4774 	1.10773e-74
0.4781 	8.09506e-75
0.4788 	5.11279e-75
0.4795 	2.13051e-75
0.4802 	3.07156e-79
0.4809 	2.63407e-79
0.4823 	1.73905e-79
0.483 	1.2882e-79
0.4837 	8.37345e-80
0.4844 	3.86493e-80
0.4851 	4.73915e-84
0.4858 	4.07726e-84
0.4865 	3.40832e-84
0.4872 	2.72667e-84
0.4879 	2.04502e-84
0.4886 	1.36337e-84
0.4893 	6.81722e-85
0.49 	7.33395e-89
0.4907 	6.32923e-89
0.4914 	5.31822e-89
0.4921 	4.28414e-89
0.4928 	3.25006e-89
0.4935 	2.21599e-89
0.4942 	1.18191e-89
0.4949 	1.47834e-90
0.4956 	9.57443e-94
0.4963 	8.08438e-94
0.497 	6.55493e-94
0.4977 	5.02549e-94
0.4984 	3.49604e-94
0.4991 	1.96659e-94
0.4998 	4.37144e-95
0.5005 	1.43866e-98
0.5012 	1.21992e-98
0.5019 	9.95558e-99
0.5026 	7.7076e-99
0.5033 	5.45962e-99
0.504 	3.21164e-99
0.5054 	2.20394e-103
0.5061 	1.87577e-103
0.5068 	1.54065e-103
0.5075 	1.20364e-103
0.5082 	8.66634e-104
0.5089 	5.29624e-104
0.5096 	1.92614e-104
0.5103 	3.46315e-108
0.511 	2.95789e-108
0.5117 	2.44416e-108
0.5124 	1.92571e-108
0.5131 	1.40727e-108
0.5138 	8.88822e-109
0.5145 	3.70377e-109
0.5152 	5.59158e-113
0.5159 	4.792e-113
0.5166 	3.98228e-113
0.5173 	3.16242e-113
0.518 	2.34255e-113
0.5187 	1.52269e-113
0.5194 	7.02833e-114
0.5201 	9.30544e-118
0.5208 	8.00069e-118
0.5215 	6.68448e-118
0.5222 	5.34761e-118
0.5229 	4.01075e-118
0.5236 	2.67389e-118
0.5243 	1.33702e-118
0.525 	1.60183e-122
0.5257 	1.38152e-122
0.5264 	1.16009e-122
0.5271 	9.34522e-123
0.5278 	7.08955e-123
0.5285 	4.83387e-123
0.5292 	2.5782e-123
0.5299 	3.2252e-124
0.5306 	2.47351e-127
0.5313 	2.08699e-127
0.5327 	1.29734e-127
0.5334 	9.02511e-128
0.5341 	5.07685e-128
0.5348 	1.12859e-128
0.5355 	4.60673e-132
0.5362 	3.90334e-132
0.5369 	3.18525e-132
0.5376 	2.46602e-132
0.5383 	1.74679e-132
0.539 	1.02756e-132
0.5397 	3.08338e-133
0.5404 	8.95234e-137
0.5411 	7.61392e-137
0.5418 	6.2525e-137
0.5425 	4.88481e-137
0.5432 	3.51712e-137
0.5439 	2.14942e-137
0.5446 	7.81732e-138
0.5453 	1.82327e-141
0.546 	1.55625e-141
0.5467 	1.28559e-141
0.5474 	1.01289e-141
0.5481 	7.40203e-142
0.5488 	4.67512e-142
0.5495 	1.94821e-142
0.5502 	3.95336e-146
0.5509 	3.38822e-146
0.5516 	2.81725e-146
0.5523 	2.24045e-146
0.553 	1.66365e-146
0.5537 	1.08684e-146
0.5544 	5.10038e-147
0.5551 	1.55249e-148
0.5558 	1.47522e-148
0.5565 	1.39793e-148
0.5572 	1.32061e-148
0.5579 	1.24329e-148
0.5586 	1.16597e-148
0.5593 	1.08865e-148
0.56 	1.01134e-148
0.5607 	9.54636e-149
0.5614 	8.9793e-149
0.5621 	8.412e-149
0.5628 	7.84471e-149
0.5635 	7.27742e-149
0.5642 	6.71013e-149
0.5649 	6.14283e-149
0.5656 	5.74996e-149
0.5663 	5.38613e-149
0.567 	5.02205e-149
0.5677 	4.65796e-149
0.5684 	4.29388e-149
0.5691 	3.92979e-149
0.5698 	3.56571e-149
0.5705 	3.30373e-149
0.5712 	3.0826e-149
0.5719 	2.86129e-149
0.5733 	2.41866e-149
0.574 	2.19734e-149
0.5747 	1.97602e-149
0.5754 	1.8083e-149
0.5761 	1.68078e-149
0.5768 	1.55316e-149
0.5775 	1.42552e-149
0.5782 	1.29788e-149
0.5789 	1.17024e-149
0.5796 	1.0426e-149
0.5803 	9.39938e-150
0.581 	8.70582e-150
0.5824 	7.31755e-150
0.5831 	6.62329e-150
0.5838 	5.92903e-150
0.5845 	5.23477e-150
0.5852 	4.6373e-150
0.5859 	4.28182e-150
0.5873 	3.57026e-150
0.588 	3.21438e-150
0.5887 	2.8585e-150
0.5894 	2.50263e-150
0.5901 	2.17304e-150
0.5908 	2.00116e-150
0.5915 	1.82922e-150
0.5929 	1.48506e-150
0.5936 	1.31298e-150
0.5943 	1.1409e-150
0.595 	9.68827e-151
0.5957 	8.90254e-151
0.5964 	8.11659e-151
0.5971 	7.32985e-151
0.5978 	6.54312e-151
0.5985 	5.75639e-151
0.5992 	4.96965e-151
0.5999 	4.18292e-151
0.6006 	3.77849e-151
0.6013 	3.43774e-151
0.602 	3.09656e-151
0.6027 	2.75538e-151
0.6034 	2.41421e-151
0.6041 	2.07303e-151
0.6048 	1.73186e-151
0.6055 	1.53394e-151
0.6062 	1.39332e-151
0.6069 	1.25251e-151
0.6076 	1.1117e-151
0.6083 	9.7088e-152
0.609 	8.30062e-152
0.6097 	6.89244e-152
0.6104 	5.97224e-152
0.6111 	5.41802e-152
0.6118 	4.86315e-152
0.6125 	4.30811e-152
0.6132 	3.75307e-152
0.6139 	3.19802e-152
0.6146 	2.64298e-152
0.6153 	2.23612e-152
0.616 	2.02683e-152
0.6167 	1.81733e-152
0.6174 	1.60772e-152
0.6181 	1.39811e-152
0.6188 	1.18849e-152
0.6195 	9.78882e-153
0.6202 	8.07453e-153
0.6209 	7.31482e-153
0.6216 	6.5545e-153
0.6223 	5.79358e-153
0.623 	5.03265e-153
0.6237 	4.27173e-153
0.6244 	3.51081e-153
0.6251 	2.82059e-153
0.6258 	2.55462e-153
0.6265 	2.2885e-153
0.6272 	2.02209e-153
0.6279 	1.75569e-153
0.6286 	1.48928e-153
0.6293 	1.22288e-153
0.63 	9.56475e-154
0.6307 	8.66347e-154
0.6314 	7.76186e-154
0.6321 	6.85907e-154
0.6328 	5.95629e-154
0.6335 	5.0535e-154
0.6342 	4.15072e-154
0.6349 	3.24793e-154
0.6356 	2.86451e-154
0.6363 	2.56762e-154
0.637 	2.27026e-154
0.6377 	1.9729e-154
0.6384 	1.67554e-154
0.6391 	1.37818e-154
0.6398 	1.08082e-154
0.6405 	9.27657e-155
0.6412 	8.32175e-155
0.6419 	7.36545e-155
0.6426 	6.40903e-155
0.6433 	5.45261e-155
0.644 	4.49619e-155
0.6447 	3.53977e-155
0.6454 	2.95761e-155
0.6461 	2.65615e-155
0.6468 	2.3543e-155
0.6475 	2.05234e-155
0.6482 	1.75037e-155
0.6489 	1.44841e-155
0.6496 	1.14645e-155
0.6503 	9.33619e-156
0.651 	8.39635e-156
0.6517 	7.45552e-156
0.6524 	6.51415e-156
0.6531 	5.57277e-156
0.6538 	4.6314e-156
0.6545 	3.69002e-156
0.6552 	2.93444e-156
0.6559 	2.64333e-156
0.6566 	2.352e-156
0.6573 	2.06044e-156
0.658 	1.76888e-156
0.6587 	1.47731e-156
0.6594 	1.18575e-156
0.6601 	9.2297e-157
0.6608 	8.32876e-157
0.6615 	7.42734e-157
0.6622 	6.52506e-157
0.6629 	5.62277e-157
0.6636 	4.72049e-157
0.6643 	3.8182e-157
0.665 	2.91592e-157
0.6657 	2.63596e-157
0.6664 	2.35592e-157
0.6678 	1.79522e-157
0.6685 	1.51487e-157
0.6692 	1.23452e-157
0.6699 	9.54164e-158
0.6706 	8.38987e-158
0.6713 	7.51331e-158
0.672 	6.63567e-158
0.6727 	5.75803e-158
0.6734 	4.88039e-158
0.6741 	4.00275e-158
0.6748 	3.12511e-158
0.6755 	2.67661e-158
0.6762 	2.39976e-158
0.6769 	2.1226e-158
0.6776 	1.84542e-158
0.6783 	1.56823e-158
0.679 	1.29104e-158
0.6797 	1.01386e-158
0.6804 	8.44854e-159
0.6811 	7.5699e-159
0.6818 	6.69046e-159
0.6825 	5.8108e-159
0.6832 	4.93113e-159
0.6839 	4.05147e-159
0.6846 	3.17181e-159
0.6853 	2.55162e-159
0.686 	2.27739e-159
0.6867 	2.00297e-159
0.6881 	1.45391e-159
0.6888 	1.17938e-159
0.6895 	9.04844e-160
0.6902 	6.86223e-160
0.6909 	6.07377e-160
0.6916 	5.2849e-160
0.6923 	4.49562e-160
0.693 	3.70633e-160
0.6937 	2.91705e-160
0.6944 	2.12777e-160
0.6951 	1.42606e-160
0.6958 	1.24981e-160
0.6965 	1.07605e-160
0.6972 	9.06774e-161
0.6979 	7.37502e-161
0.6986 	5.68229e-161
0.6993 	3.98957e-161
0.7 	2.29684e-161
