0 	1
0.0007 	1
0.0014 	1
0.0021 	1
0.0028 	1
0.0035 	1
0.0042 	1
0.0049 	1
0.0056 	1
0.0063 	1
0.007 	1
0.0077 	1
0.0084 	1
0.0091 	1
0.0098 	1
0.0105 	1
0.0112 	1
0.0119 	1
0.0126 	1
0.0133 	1
0.014 	1
0.0147 	1
0.0154 	1
0.0161 	1
0.0168 	1
0.0175 	1
0.0182 	1
0.0189 	1
0.0196 	1
0.0203 	1
0.021 	1
0.0217 	1
0.0224 	1
0.0231 	1
0.0238 	1
0.0245 	1
0.0252 	1
0.0259 	1
0.0266 	1
0.0273 	1
0.028 	1
0.0287 	1
0.0294 	1
0.0301 	1
0.0308 	1
0.0315 	1
0.0322 	1
0.0329 	1
0.0336 	1
0.0343 	1
0.035 	1
0.0357 	1
0.0364 	1
0.0371 	1
0.0378 	1
0.0385 	1
0.0392 	1
0.0399 	1
0.0406 	1
0.0413 	1
0.042 	1
0.0427 	1
0.0434 	1
0.0441 	1
0.0448 	1
0.0455 	1
0.0462 	1
0.0469 	1
0.0476 	1
0.0483 	1
0.049 	1
0.0497 	1
0.0504 	1
0.0511 	1
0.0518 	1
0.0525 	1
0.0532 	1
0.0539 	1
0.0546 	1
0.0553 	1
0.056 	1
0.0567 	1
0.0574 	1
0.0581 	1
0.0588 	1
0.0595 	1
0.0602 	1
0.0609 	1
0.0616 	1
0.0623 	1
0.063 	1
0.0637 	1
0.0644 	1
0.0651 	1
0.0658 	1
0.0665 	1
0.0672 	1
0.0679 	1
0.0686 	1
0.0693 	1
0.07 	1
0.0707 	1
0.0714 	1
0.0721 	1
0.0728 	1
0.0735 	1
0.0742 	1
0.0749 	1
0.0756 	1
0.0763 	1
0.077 	1
0.0777 	1
0.0784 	1
0.0791 	1
0.0798 	1
0.0805 	1
0.0812 	1
0.0819 	1
0.0826 	1
0.0833 	1
0.084 	1
0.0847 	1
0.0854 	1
0.0861 	1
0.0868 	1
0.0875 	1
0.0882 	1
0.0889 	1
0.0896 	1
0.0903 	1
0.091 	1
0.0917 	1
0.0924 	1
0.0931 	1
0.0938 	1
0.0945 	1
0.0952 	1
0.0959 	1
0.0966 	1
0.0973 	1
0.098 	1
0.0987 	1
0.0994 	1
0.1001 	1
0.1008 	1
0.1015 	1
0.1022 	1
0.1029 	1
0.1036 	1
0.1043 	1
0.105 	1
0.1057 	1
0.1064 	1
0.1071 	1
0.1078 	1
0.1085 	1
0.1092 	1
0.1099 	1
0.1106 	1
0.1113 	1
0.112 	1
0.1127 	1
0.1134 	1
0.1141 	1
0.1148 	1
0.1155 	1
0.1162 	1
0.1169 	1
0.1176 	1
0.1183 	1
0.119 	1
0.1197 	1
0.1204 	1
0.1211 	1
0.1218 	1
0.1225 	1
0.1232 	1
0.1239 	1
0.1246 	1
0.1253 	1
0.126 	1
0.1267 	1
0.1274 	1
0.1281 	1
0.1288 	1
0.1295 	1
0.1302 	1
0.1309 	1
0.1316 	1
0.1323 	1
0.133 	1
0.1337 	1
0.1344 	1
0.1351 	1
0.1358 	1
0.1365 	1
0.1372 	1
0.1379 	1
0.1386 	1
0.1393 	1
0.14 	1
0.1407 	1
0.1414 	1
0.1421 	1
0.1428 	1
0.1435 	1
0.1442 	1
0.1449 	1
0.1456 	1
0.1463 	1
0.147 	1
0.1477 	1
0.1484 	1
0.1491 	1
0.1498 	1
0.1505 	1
0.1512 	1
0.1519 	1
0.1526 	1
0.1533 	1
0.154 	1
0.1547 	1
0.1554 	1
0.1561 	1
0.1568 	1
0.1575 	1
0.1582 	1
0.1589 	1
0.1596 	1
0.1603 	1
0.161 	1
0.1617 	1
0.1624 	1
0.1631 	1
0.1638 	1
0.1645 	1
0.1652 	1
0.1659 	1
0.1666 	1
0.1673 	1
0.168 	1
0.1687 	1
0.1694 	1
0.1701 	1
0.1708 	1
0.1715 	1
0.1722 	1
0.1729 	1
0.1736 	1
0.1743 	1
0.175 	1
0.1757 	1
0.1764 	1
0.1771 	1
0.1778 	1
0.1785 	1
0.1792 	1
0.1799 	1
0.1806 	1
0.1813 	1
0.182 	1
0.1827 	1
0.1834 	1
0.1841 	1
0.1848 	1
0.1855 	1
0.1862 	1
0.1869 	1
0.1876 	1
0.1883 	1
0.189 	1
0.1897 	1
0.1904 	1
0.1911 	1
0.1918 	1
0.1925 	1
0.1932 	1
0.1939 	1
0.1946 	1
0.1953 	1
0.196 	1
0.1967 	1
0.1974 	1
0.1981 	1
0.1988 	1
0.1995 	1
0.2002 	1
0.2009 	1
0.2016 	1
0.2023 	1
0.203 	1
0.2037 	1
0.2044 	1
0.2051 	1
0.2058 	1
0.2065 	1
0.2072 	1
0.2079 	1
0.2086 	1
0.2093 	1
0.21 	1
0.2107 	1
0.2114 	1
0.2121 	1
0.2128 	1
0.2135 	1
0.2142 	1
0.2149 	1
0.2156 	1
0.2163 	1
0.217 	1
0.2177 	1
0.2184 	1
0.2191 	1
0.2198 	1
0.2205 	1
0.2212 	1
0.2219 	1
0.2226 	1
0.2233 	1
0.224 	1
0.2247 	1
0.2254 	1
0.2261 	1
0.2268 	1
0.2275 	1
0.2282 	1
0.2289 	1
0.2296 	1
0.2303 	1
0.231 	1
0.2317 	0.999999
0.2324 	0.999999
0.2331 	0.999999
0.2338 	0.999999
0.2345 	0.999998
0.2352 	0.999972
0.2359 	0.99988
0.2366 	0.999789
0.2373 	0.999697
0.238 	0.999606
0.2387 	0.999514
0.2394 	0.999422
0.2401 	0.998753
0.2408 	0.994608
0.2415 	0.990463
0.2422 	0.986318
0.2429 	0.982173
0.2436 	0.978028
0.2443 	0.973883
0.245 	0.969738
0.2457 	0.935229
0.2464 	0.900711
0.2471 	0.866194
0.2478 	0.831677
0.2485 	0.79716
0.2492 	0.762643
0.2499 	0.728126
0.2506 	0.669285
0.2513 	0.606394
0.252 	0.543503
0.2527 	0.480612
0.2534 	0.417721
0.2541 	0.35483
0.2548 	0.291939
0.2555 	0.248757
0.2562 	0.213478
0.2569 	0.178198
0.2576 	0.142917
0.2583 	0.107637
0.259 	0.0723567
0.2597 	0.0370764
0.2604 	0.0202734
0.2611 	0.0173156
0.2618 	0.0143576
0.2625 	0.0113995
0.2632 	0.00844148
0.2639 	0.00548342
0.2646 	0.00252536
0.2653 	0.000788301
0.266 	0.000677387
0.2667 	0.000566465
0.2674 	0.000455538
0.2681 	0.00034461
0.2688 	0.000233683
0.2695 	0.000122756
0.2702 	4.1899e-05
0.2709 	3.61191e-05
0.2716 	3.03388e-05
0.2723 	2.4558e-05
0.273 	1.87772e-05
0.2737 	1.29964e-05
0.2744 	7.21557e-06
0.2751 	2.21898e-06
0.2758 	1.91751e-06
0.2765 	1.61602e-06
0.2772 	1.31451e-06
0.2779 	1.013e-06
0.2786 	7.11482e-07
0.2793 	4.09969e-07
0.28 	1.0854e-07
0.2807 	9.38838e-08
0.2814 	7.92353e-08
0.2821 	6.45872e-08
0.2828 	4.9939e-08
0.2835 	3.52909e-08
0.2842 	2.06427e-08
0.2849 	5.99456e-09
0.2856 	3.44402e-09
0.2863 	2.90513e-09
0.287 	2.36642e-09
0.2877 	1.82771e-09
0.2884 	1.289e-09
0.2891 	7.50291e-10
0.2898 	2.11581e-10
0.2905 	5.23519e-11
0.2912 	4.46893e-11
0.2919 	3.70328e-11
0.2926 	2.93768e-11
0.2933 	2.17208e-11
0.294 	1.40647e-11
0.2947 	6.40867e-12
0.2954 	3.08741e-12
0.2961 	3.01287e-12
0.2968 	2.93821e-12
0.2975 	2.8635e-12
0.2982 	2.7888e-12
0.2989 	2.7141e-12
0.2996 	2.6394e-12
0.3003 	2.51334e-12
0.301 	2.31883e-12
0.3017 	2.12454e-12
0.3024 	1.93038e-12
0.3031 	1.73622e-12
0.3038 	1.54206e-12
0.3045 	1.3479e-12
0.3052 	1.1713e-12
0.3059 	1.0388e-12
0.3066 	9.06533e-13
0.3073 	7.74505e-13
0.308 	6.42477e-13
0.3087 	5.10449e-13
0.3094 	3.78421e-13
0.3101 	2.61138e-13
0.3108 	2.32195e-13
0.3115 	2.03301e-13
0.3122 	1.74492e-13
0.3129 	1.45684e-13
0.3136 	1.16876e-13
0.3143 	8.80683e-14
0.315 	5.92655e-14
0.3157 	5.2401e-14
0.3164 	4.55459e-14
0.3171 	3.87173e-14
0.3178 	3.18888e-14
0.3185 	2.50602e-14
0.3192 	1.82316e-14
0.3199 	1.14031e-14
0.3206 	9.31738e-15
0.3213 	8.02162e-15
0.322 	6.73247e-15
0.3227 	5.44331e-15
0.3234 	4.15416e-15
0.3241 	2.86501e-15
0.3248 	1.57585e-15
0.3255 	1.09544e-15
0.3262 	9.3818e-16
0.3269 	7.81803e-16
0.3276 	6.25494e-16
0.3283 	4.69185e-16
0.329 	3.12876e-16
0.3297 	1.56567e-16
0.3304 	8.26977e-17
0.3311 	7.05936e-17
0.3318 	5.85517e-17
0.3325 	4.65267e-17
0.3332 	3.45017e-17
0.3339 	2.24767e-17
0.3346 	1.04517e-17
0.3353 	3.37056e-18
0.336 	2.87362e-18
0.3367 	2.37892e-18
0.3374 	1.88548e-18
0.3381 	1.39203e-18
0.3388 	8.98588e-19
0.3395 	4.05142e-19
0.3402 	5.07132e-20
0.3409 	4.32949e-20
0.3416 	3.59049e-20
0.3423 	2.85431e-20
0.343 	2.11813e-20
0.3437 	1.38195e-20
0.3444 	6.4577e-21
0.3451 	1.46935e-22
0.3458 	1.25818e-22
0.3465 	1.04762e-22
0.3472 	8.38176e-23
0.3479 	6.28728e-23
0.3486 	4.1928e-23
0.3493 	2.09833e-23
0.35 	4.52988e-26
0.3507 	3.89127e-26
0.3514 	3.25419e-26
0.3521 	2.62144e-26
0.3528 	1.98869e-26
0.3535 	1.35594e-26
0.3542 	7.23189e-27
0.3549 	9.04381e-28
0.3556 	2.20344e-30
0.3563 	1.85061e-30
0.357 	1.5005e-30
0.3577 	1.15038e-30
0.3584 	8.00274e-31
0.3591 	4.50163e-31
0.3598 	1.00052e-31
0.3605 	1.20239e-34
0.3612 	1.0141e-34
0.3619 	8.27203e-35
0.3626 	6.40417e-35
0.3633 	4.53631e-35
0.364 	2.66845e-35
0.3647 	8.0059e-36
0.3654 	6.29442e-39
0.3661 	5.33054e-39
0.3668 	4.37247e-39
0.3675 	3.416e-39
0.3682 	2.45953e-39
0.3689 	1.50306e-39
0.3696 	5.46584e-40
0.3703 	3.17783e-43
0.371 	2.70172e-43
0.3717 	2.22788e-43
0.3724 	1.7553e-43
0.3731 	1.28272e-43
0.3738 	8.10145e-44
0.3745 	3.37566e-44
0.3752 	1.56119e-47
0.3759 	1.33224e-47
0.3766 	1.10411e-47
0.3773 	8.76793e-48
0.378 	6.49477e-48
0.3787 	4.22161e-48
0.3794 	1.94845e-48
0.3801 	7.50335e-52
0.3808 	6.42575e-52
0.3815 	5.35081e-52
0.3822 	4.28065e-52
0.3829 	3.21049e-52
0.3836 	2.14033e-52
0.3843 	1.07017e-52
0.385 	3.54075e-56
0.3857 	3.04231e-56
0.3864 	2.54486e-56
0.3871 	2.05003e-56
0.3878 	1.55519e-56
0.3885 	1.06036e-56
0.3892 	5.65525e-57
0.3899 	7.0692e-58
0.3906 	1.41301e-60
0.3913 	1.18706e-60
0.392 	9.62479e-61
0.3927 	7.37901e-61
0.3934 	5.13322e-61
0.3941 	2.88743e-61
0.3948 	6.41647e-62
0.3955 	6.4256e-65
0.3962 	5.42068e-65
0.3969 	4.42176e-65
0.3976 	3.4233e-65
0.3983 	2.42483e-65
0.399 	1.42637e-65
0.3997 	4.27904e-66
0.4004 	2.86039e-69
0.4011 	2.42285e-69
0.4018 	1.98749e-69
0.4025 	1.55273e-69
0.4032 	1.11796e-69
0.4039 	6.83197e-70
0.4046 	2.48431e-70
0.4053 	1.24043e-73
0.406 	1.05405e-73
0.4067 	8.68402e-74
0.4074 	6.83168e-74
0.4081 	4.97934e-74
0.4088 	3.12701e-74
0.4095 	1.27467e-74
0.4102 	-4.69935e-76
0.4109 	-4.40356e-76
0.4116 	-4.25952e-76
0.4123 	-4.2672e-76
0.413 	-4.27489e-76
0.4137 	-4.28258e-76
0.4144 	-4.29027e-76
0.4151 	-4.22715e-76
0.4158 	-3.73811e-76
0.4165 	-3.4237e-76
0.4172 	-3.42364e-76
0.4179 	-3.42359e-76
0.4186 	-3.42353e-76
0.4193 	-3.42347e-76
0.42 	-3.42348e-76
0.4207 	-2.91999e-76
0.4214 	-2.52431e-76
0.4221 	-2.52425e-76
0.4228 	-2.5242e-76
0.4235 	-2.52414e-76
0.4242 	-2.52409e-76
0.4249 	-2.52404e-76
0.4256 	-2.14879e-76
0.4263 	-1.74213e-76
0.427 	-1.74209e-76
0.4277 	-1.74205e-76
0.4284 	-1.742e-76
0.4291 	-1.74196e-76
0.4298 	-1.74192e-76
0.4305 	-1.49804e-76
0.4312 	-1.15648e-76
0.4319 	-1.13206e-76
0.4326 	-1.13203e-76
0.4333 	-1.132e-76
0.434 	-1.13197e-76
0.4347 	-1.13194e-76
0.4354 	-9.92252e-77
0.4361 	-7.47681e-77
0.4368 	-6.95258e-77
0.4375 	-6.95239e-77
0.4382 	-6.95219e-77
0.4389 	-6.952e-77
0.4396 	-6.9518e-77
0.4403 	-6.25481e-77
0.441 	-4.62755e-77
0.4417 	-4.04631e-77
0.4424 	-4.04619e-77
0.4431 	-4.04607e-77
0.4438 	-4.04595e-77
0.4445 	-4.04582e-77
0.4452 	-3.7565e-77
0.4459 	-2.74308e-77
0.4466 	-2.23633e-77
0.4473 	-2.23626e-77
0.448 	-2.23618e-77
0.4487 	-2.23611e-77
0.4494 	-2.23603e-77
0.4501 	-2.15134e-77
0.4508 	-1.5576e-77
0.4515 	-1.17589e-77
0.4522 	-1.17585e-77
0.4529 	-1.17581e-77
0.4536 	-1.17577e-77
0.4543 	-1.17572e-77
0.455 	-1.17571e-77
0.4557 	-8.47305e-78
0.4564 	-5.8921e-78
0.4571 	-5.89186e-78
0.4578 	-5.89163e-78
0.4585 	-5.89139e-78
0.4592 	-5.89115e-78
0.4599 	-5.89092e-78
0.4606 	-4.41604e-78
0.4613 	-2.8177e-78
0.462 	-2.81758e-78
0.4627 	-2.81745e-78
0.4634 	-2.81732e-78
0.4641 	-2.8172e-78
0.4648 	-2.81707e-78
0.4655 	-2.2055e-78
0.4662 	-1.34898e-78
0.4669 	-1.28774e-78
0.4676 	-1.28768e-78
0.4683 	-1.28761e-78
0.469 	-1.28755e-78
0.4697 	-1.28748e-78
0.4704 	-1.05579e-78
0.4711 	-6.5016e-79
0.4718 	-5.63214e-79
0.4725 	-5.63182e-79
0.4732 	-5.63149e-79
0.4739 	-5.63117e-79
0.4746 	-5.63085e-79
0.4753 	-4.84619e-79
0.476 	-3.01443e-79
0.4767 	-2.36014e-79
0.4774 	-2.35998e-79
0.4781 	-2.35983e-79
0.4788 	-2.35967e-79
0.4795 	-2.35952e-79
0.4802 	-2.1339e-79
0.4809 	-1.34378e-79
0.4816 	-9.48689e-80
0.4823 	-9.48619e-80
0.483 	-9.48549e-80
0.4837 	-9.48479e-80
0.4844 	-9.48408e-80
0.4851 	-9.01869e-80
0.4858 	-5.75816e-80
0.4865 	-3.66199e-80
0.4872 	-3.66169e-80
0.4879 	-3.66139e-80
0.4886 	-3.66108e-80
0.4893 	-3.66078e-80
0.49 	-3.66056e-80
0.4907 	-2.37177e-80
0.4914 	-1.35888e-80
0.4921 	-1.35875e-80
0.4928 	-1.35863e-80
0.4935 	-1.3585e-80
0.4942 	-1.35838e-80
0.4949 	-1.35825e-80
0.4956 	-9.39268e-81
0.4963 	-4.85226e-81
0.497 	-4.85177e-81
0.4977 	-4.85127e-81
0.4984 	-4.85078e-81
0.4991 	-4.85028e-81
0.4998 	-4.84979e-81
0.5005 	-3.57765e-81
0.5012 	-1.79609e-81
0.5019 	-1.66866e-81
0.5026 	-1.66848e-81
0.5033 	-1.66829e-81
0.504 	-1.6681e-81
0.5047 	-1.66792e-81
0.5054 	-1.31132e-81
0.5061 	-6.87097e-82
0.5068 	-5.53281e-82
0.5075 	-5.53214e-82
0.5082 	-5.53146e-82
0.5089 	-5.53079e-82
0.5096 	-5.53011e-82
0.5103 	-4.62796e-82
0.511 	-2.52235e-82
0.5117 	-1.7702e-82
0.5124 	-1.76996e-82
0.5131 	-1.76973e-82
0.5138 	-1.7695e-82
0.5145 	-1.76926e-82
0.5152 	-1.57374e-82
0.5159 	-8.89262e-83
0.5166 	-5.46986e-83
0.5173 	-5.46908e-83
0.518 	-5.46831e-83
0.5187 	-5.46753e-83
0.5194 	-5.46676e-83
0.5201 	-5.1601e-83
0.5208 	-3.01366e-83
0.5215 	-1.63372e-83
0.5222 	-1.63348e-83
0.5229 	-1.63323e-83
0.5236 	-1.63298e-83
0.5243 	-1.63273e-83
0.525 	-1.63252e-83
0.5257 	-9.82724e-84
0.5264 	-4.72029e-84
0.5271 	-4.71953e-84
0.5278 	-4.71877e-84
0.5285 	-4.71801e-84
0.5292 	-4.71725e-84
0.5299 	-4.71649e-84
0.5306 	-3.08654e-84
0.5313 	-1.32026e-84
0.532 	-1.32004e-84
0.5327 	-1.31981e-84
0.5334 	-1.31959e-84
0.5341 	-1.31936e-84
0.5348 	-1.31914e-84
0.5355 	-9.34635e-85
0.5362 	-3.962e-85
0.5369 	-3.57681e-85
0.5376 	-3.57617e-85
0.5383 	-3.57553e-85
0.539 	-3.57489e-85
0.5397 	-3.57424e-85
0.5404 	-2.73131e-85
0.5411 	-1.25589e-85
0.5418 	-9.3959e-86
0.5425 	-9.39413e-86
0.5432 	-9.39236e-86
0.5439 	-9.39058e-86
0.5446 	-9.38881e-86
0.5453 	-7.71035e-86
0.546 	-3.79362e-86
0.5467 	-2.39449e-86
0.5474 	-2.39401e-86
0.5481 	-2.39354e-86
0.5488 	-2.39307e-86
0.5495 	-2.39259e-86
0.5502 	-2.10453e-86
0.5509 	-1.09649e-86
0.5516 	-5.92404e-87
0.5523 	-5.92281e-87
0.553 	-5.92159e-87
0.5537 	-5.92036e-87
0.5544 	-5.91914e-87
0.5551 	-5.55923e-87
0.5558 	-3.04208e-87
0.5565 	-1.4238e-87
0.5572 	-1.4235e-87
0.5579 	-1.42319e-87
0.5586 	-1.42288e-87
0.5593 	-1.42257e-87
0.56 	-1.4223e-87
0.5607 	-8.12162e-88
0.5614 	-3.3264e-88
0.5621 	-3.32565e-88
0.5628 	-3.3249e-88
0.5635 	-3.32415e-88
0.5642 	-3.32341e-88
0.5649 	-3.32266e-88
0.5656 	-2.09075e-88
0.5663 	-7.55833e-89
0.567 	-7.55656e-89
0.5677 	-7.55479e-89
0.5684 	-7.55303e-89
0.5691 	-7.55126e-89
0.5698 	-7.54949e-89
0.5705 	-5.19848e-89
0.5712 	-1.90644e-89
0.5719 	-1.67091e-89
0.5726 	-1.67051e-89
0.5733 	-1.6701e-89
0.574 	-1.66969e-89
0.5747 	-1.66929e-89
0.5754 	-1.25029e-89
0.5761 	-5.16968e-90
0.5768 	-3.59757e-90
0.5775 	-3.59666e-90
0.5782 	-3.59575e-90
0.5789 	-3.59484e-90
0.5796 	-3.59393e-90
0.5803 	-2.91248e-90
0.581 	-1.32256e-90
0.5817 	-7.54608e-91
0.5824 	-7.5441e-91
0.5831 	-7.54212e-91
0.5838 	-7.54013e-91
0.5845 	-7.53815e-91
0.5852 	-6.57855e-91
0.5859 	-3.22155e-91
0.5866 	-1.54283e-91
0.5873 	-1.54241e-91
0.588 	-1.54199e-91
0.5887 	-1.54157e-91
0.5894 	-1.54115e-91
0.5901 	-1.44232e-91
0.5908 	-7.51656e-92
0.5915 	-3.07628e-92
0.5922 	-3.07541e-92
0.5929 	-3.07454e-92
0.5936 	-3.07367e-92
0.5943 	-3.0728e-92
0.595 	-3.07199e-92
0.5957 	-1.68701e-92
0.5964 	-5.98509e-93
0.5971 	-5.98333e-93
0.5978 	-5.98157e-93
0.5985 	-5.97981e-93
0.5992 	-5.97805e-93
0.5999 	-5.97628e-93
0.6006 	-3.6536e-93
0.6013 	-1.13678e-93
0.602 	-1.13644e-93
0.6027 	-1.13609e-93
0.6034 	-1.13574e-93
0.6041 	-1.13539e-93
0.6048 	-1.13504e-93
0.6055 	-7.65406e-94
0.6062 	-2.47847e-94
0.6069 	-2.10816e-94
0.6076 	-2.10749e-94
0.6083 	-2.10682e-94
0.609 	-2.10615e-94
0.6097 	-2.10548e-94
0.6104 	-1.55402e-94
0.6111 	-5.89e-95
0.6118 	-3.8211e-95
0.6125 	-3.81984e-95
0.6132 	-3.81857e-95
0.6139 	-3.81731e-95
0.6146 	-3.81604e-95
0.6153 	-3.06254e-95
0.616 	-1.30488e-95
0.6167 	-6.76998e-96
0.6174 	-6.76765e-96
0.6181 	-6.76532e-96
0.6188 	-6.76298e-96
0.6195 	-6.76065e-96
0.6202 	-5.866e-96
0.6209 	-2.73745e-96
0.6216 	-1.17296e-96
0.6223 	-1.17254e-96
0.623 	-1.17212e-96
0.6237 	-1.1717e-96
0.6244 	-1.17128e-96
0.6251 	-1.09329e-96
0.6258 	-5.48847e-97
0.6265 	-1.98819e-97
0.6272 	-1.98745e-97
0.6279 	-1.9867e-97
0.6286 	-1.98596e-97
0.6293 	-1.98522e-97
0.63 	-1.98451e-97
0.6307 	-1.058e-97
0.6314 	-3.29821e-98
0.6321 	-3.29692e-98
0.6328 	-3.29564e-98
0.6335 	-3.29435e-98
0.6342 	-3.29306e-98
0.6349 	-3.29177e-98
0.6356 	-1.96898e-98
0.6363 	-5.35679e-99
0.637 	-5.3546e-99
0.6377 	-5.35242e-99
0.6384 	-5.35024e-99
0.6391 	-5.34806e-99
0.6398 	-5.34587e-99
0.6405 	-3.5484e-99
0.6412 	-1.03184e-99
0.6419 	-8.51745e-100
0.6426 	-8.51382e-100
0.6433 	-8.51019e-100
0.644 	-8.50657e-100
0.6447 	-8.50294e-100
0.6454 	-6.20663e-100
0.6461 	-2.18884e-100
0.6468 	-1.32742e-100
0.6475 	-1.32683e-100
0.6482 	-1.32624e-100
0.6489 	-1.32564e-100
0.6496 	-1.32505e-100
0.6503 	-1.05559e-100
0.651 	-4.27229e-101
0.6517 	-2.02753e-101
0.6524 	-2.02658e-101
0.6531 	-2.02564e-101
0.6538 	-2.0247e-101
0.6545 	-2.02375e-101
0.6552 	-1.7482e-101
0.6559 	-7.85195e-102
0.6566 	-3.03618e-102
0.6573 	-3.0347e-102
0.658 	-3.03322e-102
0.6587 	-3.03174e-102
0.6594 	-3.03026e-102
0.6601 	-2.82272e-102
0.6608 	-1.376e-102
0.6615 	-4.45884e-103
0.6622 	-4.45656e-103
0.6629 	-4.45429e-103
0.6636 	-4.45201e-103
0.6643 	-4.44973e-103
0.665 	-4.44755e-103
0.6657 	-2.3169e-103
0.6664 	-6.42351e-104
0.6671 	-6.42008e-104
0.6678 	-6.41664e-104
0.6685 	-6.41321e-104
0.6692 	-6.40978e-104
0.6699 	-6.40635e-104
0.6706 	-3.76735e-104
0.6713 	-9.07995e-105
0.672 	-9.07488e-105
0.6727 	-9.06981e-105
0.6734 	-9.06474e-105
0.6741 	-9.05967e-105
0.6748 	-9.0546e-105
0.6755 	-5.93633e-105
0.6762 	-1.57108e-105
0.6769 	-1.2586e-105
0.6776 	-1.25787e-105
0.6783 	-1.25713e-105
0.679 	-1.2564e-105
0.6797 	-1.25567e-105
0.6804 	-9.08474e-106
0.6811 	-3.0114e-106
0.6818 	-1.70916e-106
0.6825 	-1.70812e-106
0.6832 	-1.70709e-106
0.6839 	-1.70605e-106
0.6846 	-1.70501e-106
0.6853 	-1.34931e-106
0.686 	-5.20188e-107
0.6867 	-2.23981e-107
0.6874 	-2.23838e-107
0.6881 	-2.23696e-107
0.6888 	-2.23553e-107
0.6895 	-2.2341e-107
0.6902 	-1.91826e-107
0.6909 	-8.15315e-108
0.6916 	-2.63748e-108
0.6923 	-2.63559e-108
0.693 	-2.63369e-108
0.6937 	-2.6318e-108
0.6944 	-2.6299e-108
0.6951 	-2.4185e-108
0.6958 	-9.47176e-109
0.6965 	-1.24456e-111
0.6972 	-1.01925e-111
0.6979 	-7.9395e-112
0.6986 	-5.68646e-112
0.6993 	-3.43342e-112
0.7 	-1.18102e-112
