0 	1
0.0007 	1
0.0014 	1
0.0021 	1
0.0028 	1
0.0035 	1
0.0042 	1
0.0049 	1
0.0056 	1
0.0063 	1
0.007 	1
0.0077 	1
0.0084 	1
0.0091 	1
0.0098 	1
0.0105 	1
0.0112 	1
0.0119 	1
0.0126 	1
0.0133 	1
0.014 	1
0.0147 	1
0.0154 	1
0.0161 	1
0.0168 	1
0.0175 	1
0.0182 	1
0.0189 	1
0.0196 	1
0.0203 	1
0.021 	1
0.0217 	1
0.0224 	1
0.0231 	1
0.0238 	1
0.0245 	1
0.0252 	1
0.0259 	1
0.0266 	1
0.0273 	1
0.028 	1
0.0287 	1
0.0294 	1
0.0301 	1
0.0308 	1
0.0315 	1
0.0322 	1
0.0329 	1
0.0336 	1
0.0343 	1
0.035 	1
0.0357 	1
0.0364 	1
0.0371 	1
0.0378 	1
0.0385 	1
0.0392 	1
0.0399 	1
0.0406 	1
0.0413 	1
0.042 	1
0.0427 	1
0.0434 	1
0.0441 	1
0.0448 	1
0.0455 	1
0.0462 	1
0.0469 	1
0.0476 	1
0.0483 	1
0.049 	1
0.0497 	1
0.0504 	1
0.0511 	1
0.0518 	1
0.0525 	1
0.0532 	1
0.0539 	1
0.0546 	1
0.0553 	1
0.056 	1
0.0567 	1
0.0574 	1
0.0581 	1
0.0588 	1
0.0595 	1
0.0602 	1
0.0609 	1
0.0616 	1
0.0623 	1
0.063 	1
0.0637 	1
0.0644 	1
0.0651 	1
0.0658 	1
0.0665 	1
0.0672 	1
0.0679 	1
0.0686 	1
0.0693 	1
0.07 	1
0.0707 	1
0.0714 	1
0.0721 	1
0.0728 	1
0.0735 	1
0.0742 	1
0.0749 	1
0.0756 	1
0.0763 	1
0.077 	1
0.0777 	1
0.0784 	1
0.0791 	1
0.0798 	1
0.0805 	1
0.0812 	1
0.0819 	1
0.0826 	1
0.0833 	1
0.084 	1
0.0847 	1
0.0854 	1
0.0861 	1
0.0868 	1
0.0875 	1
0.0882 	1
0.0889 	1
0.0896 	1
0.0903 	1
0.091 	1
0.0917 	1
0.0924 	1
0.0931 	1
0.0938 	1
0.0945 	1
0.0952 	1
0.0959 	1
0.0966 	1
0.0973 	1
0.098 	1
0.0987 	1
0.0994 	1
0.1001 	1
0.1008 	1
0.1015 	1
0.1022 	1
0.1029 	1
0.1036 	1
0.1043 	1
0.105 	1
0.1057 	1
0.1064 	1
0.1071 	1
0.1078 	1
0.1085 	1
0.1092 	1
0.1099 	1
0.1106 	1
0.1113 	1
0.112 	1
0.1127 	1
0.1134 	1
0.1141 	1
0.1148 	1
0.1155 	1
0.1162 	1
0.1169 	1
0.1176 	1
0.1183 	1
0.119 	1
0.1197 	1
0.1204 	1
0.1211 	1
0.1218 	1
0.1225 	1
0.1232 	1
0.1239 	1
0.1246 	1
0.1253 	1
0.126 	1
0.1267 	1
0.1274 	1
0.1281 	1
0.1288 	1
0.1295 	1
0.1302 	1
0.1309 	1
0.1316 	1
0.1323 	1
0.133 	1
0.1337 	1
0.1344 	1
0.1351 	1
0.1358 	1
0.1365 	1
0.1372 	1
0.1379 	1
0.1386 	1
0.1393 	1
0.14 	1
0.1407 	1
0.1414 	1
0.1421 	1
0.1428 	1
0.1435 	1
0.1442 	1
0.1449 	1
0.1456 	1
0.1463 	1
0.147 	1
0.1477 	1
0.1484 	1
0.1491 	1
0.1498 	1
0.1505 	1
0.1512 	1
0.1519 	1
0.1526 	1
0.1533 	1
0.154 	1
0.1547 	1
0.1554 	1
0.1561 	1
0.1568 	1
0.1575 	1
0.1582 	1
0.1589 	1
0.1596 	1
0.1603 	1
0.161 	1
0.1617 	1
0.1624 	1
0.1631 	1
0.1638 	1
0.1645 	1
0.1652 	1
0.1659 	1
0.1666 	1
0.1673 	1
0.168 	1
0.1687 	1
0.1694 	1
0.1701 	1
0.1708 	1
0.1715 	1
0.1722 	1
0.1729 	1
0.1736 	1
0.1743 	1
0.175 	1
0.1757 	1
0.1764 	1
0.1771 	1
0.1778 	1
0.1785 	1
0.1792 	1
0.1799 	1
0.1806 	1
0.1813 	1
0.182 	1
0.1827 	1
0.1834 	1
0.1841 	1
0.1848 	1
0.1855 	1
0.1862 	1
0.1869 	1
0.1876 	1
0.1883 	1
0.189 	1
0.1897 	1
0.1904 	1
0.1911 	1
0.1918 	1
0.1925 	1
0.1932 	1
0.1939 	1
0.1946 	1
0.1953 	1
0.196 	1
0.1967 	1
0.1974 	1
0.1981 	1
0.1988 	1
0.1995 	1
0.2002 	1
0.2009 	1
0.2016 	1
0.2023 	1
0.203 	1
0.2037 	1
0.2044 	1
0.2051 	1
0.2058 	1
0.2065 	1
0.2072 	1
0.2079 	1
0.2086 	1
0.2093 	1
0.21 	1
0.2107 	1
0.2114 	1
0.2121 	1
0.2128 	1
0.2135 	1
0.2142 	1
0.2149 	1
0.2156 	1
0.2163 	1
0.217 	1
0.2177 	1
0.2184 	1
0.2191 	1
0.2198 	1
0.2205 	1
0.2212 	1
0.2219 	1
0.2226 	1
0.2233 	1
0.224 	1
0.2247 	1
0.2254 	1
0.2261 	1
0.2268 	1
0.2275 	1
0.2282 	1
0.2289 	1
0.2296 	1
0.2303 	1
0.231 	1
0.2317 	1
0.2324 	1
0.2331 	1
0.2338 	1
0.2345 	1
0.2352 	1
0.2359 	1
0.2366 	1
0.2373 	1
0.238 	1
0.2387 	1
0.2394 	1
0.2401 	1
0.2408 	1
0.2415 	1
0.2422 	1
0.2429 	1
0.2436 	1
0.2443 	1
0.245 	1
0.2457 	1
0.2464 	1
0.2471 	1
0.2478 	1
0.2485 	1
0.2492 	1
0.2499 	1
0.2506 	0.999999
0.2513 	0.999999
0.252 	0.999998
0.2527 	0.999998
0.2534 	0.999997
0.2541 	0.999997
0.2548 	0.999996
0.2555 	0.999918
0.2562 	0.999809
0.2569 	0.9997
0.2576 	0.999591
0.2583 	0.999482
0.259 	0.999374
0.2597 	0.999265
0.2604 	0.996588
0.2611 	0.991986
0.2618 	0.987384
0.2625 	0.982783
0.2632 	0.978181
0.2639 	0.973579
0.2646 	0.968978
0.2653 	0.950821
0.266 	0.914586
0.2667 	0.878352
0.2674 	0.842119
0.2681 	0.805886
0.2688 	0.769653
0.2695 	0.733421
0.2702 	0.689595
0.2709 	0.62679
0.2716 	0.563986
0.2723 	0.501182
0.273 	0.438377
0.2737 	0.375572
0.2744 	0.312768
0.2751 	0.254137
0.2758 	0.22058
0.2765 	0.187021
0.2772 	0.153461
0.2779 	0.1199
0.2786 	0.0863395
0.2793 	0.052779
0.28 	0.0192211
0.2807 	0.0166333
0.2814 	0.0140458
0.2821 	0.011458
0.2828 	0.00887014
0.2835 	0.00628229
0.2842 	0.00369443
0.2849 	0.00110658
0.2856 	0.000653364
0.2863 	0.000555682
0.287 	0.000457976
0.2877 	0.000360269
0.2884 	0.000262563
0.2891 	0.000164857
0.2898 	6.71503e-05
0.2905 	3.53642e-05
0.2912 	2.99363e-05
0.2919 	2.45066e-05
0.2926 	1.90767e-05
0.2933 	1.36468e-05
0.294 	8.21697e-06
0.2947 	2.78711e-06
0.2954 	4.23737e-07
0.2961 	3.59386e-07
0.2968 	2.95021e-07
0.2975 	2.30653e-07
0.2982 	1.66285e-07
0.2989 	1.01916e-07
0.2996 	3.75481e-08
0.3003 	7.2632e-10
0.301 	6.18974e-10
0.3017 	5.11612e-10
0.3024 	4.04241e-10
0.3031 	2.9687e-10
0.3038 	1.89499e-10
0.3045 	8.21282e-11
0.3052 	5.47466e-12
0.3059 	5.57772e-12
0.3066 	5.68093e-12
0.3073 	5.78429e-12
0.308 	5.88765e-12
0.3087 	5.99101e-12
0.3094 	6.09437e-12
0.3101 	6.16318e-12
0.3108 	6.02449e-12
0.3115 	5.88594e-12
0.3122 	5.74764e-12
0.3129 	5.60934e-12
0.3136 	5.47104e-12
0.3143 	5.33273e-12
0.315 	5.19441e-12
0.3157 	4.85289e-12
0.3164 	4.5114e-12
0.3171 	4.16998e-12
0.3178 	3.82857e-12
0.3185 	3.48715e-12
0.3192 	3.14574e-12
0.3199 	2.80433e-12
0.3206 	2.54287e-12
0.3213 	2.29473e-12
0.322 	2.04627e-12
0.3227 	1.79781e-12
0.3234 	1.54936e-12
0.3241 	1.3009e-12
0.3248 	1.05244e-12
0.3255 	9.04776e-13
0.3262 	7.97434e-13
0.3269 	6.89814e-13
0.3276 	5.82172e-13
0.3283 	4.74531e-13
0.329 	3.6689e-13
0.3297 	2.59249e-13
0.3304 	1.98026e-13
0.3311 	1.71613e-13
0.3318 	1.45106e-13
0.3325 	1.18573e-13
0.3332 	9.20402e-14
0.3339 	6.55074e-14
0.3346 	3.89746e-14
0.3353 	2.24513e-14
0.336 	1.92706e-14
0.3367 	1.60757e-14
0.3374 	1.28731e-14
0.3381 	9.67042e-15
0.3388 	6.46777e-15
0.3395 	3.26511e-15
0.3402 	9.39311e-16
0.3409 	8.04642e-16
0.3416 	6.69261e-16
0.3423 	5.33167e-16
0.343 	3.97073e-16
0.3437 	2.60979e-16
0.3444 	1.24885e-16
0.3451 	8.08396e-18
0.3458 	6.94431e-18
0.3465 	5.79811e-18
0.3472 	4.64009e-18
0.3479 	3.48208e-18
0.3486 	2.32407e-18
0.3493 	1.16605e-18
0.35 	8.16379e-21
0.3507 	7.04032e-21
0.3514 	5.91146e-21
0.3521 	4.76212e-21
0.3528 	3.61277e-21
0.3535 	2.46342e-21
0.3542 	1.31408e-21
0.3549 	1.64729e-22
0.3556 	5.84012e-25
0.3563 	4.93267e-25
0.357 	3.9995e-25
0.3577 	3.06633e-25
0.3584 	2.13317e-25
0.3591 	1.2e-25
0.3598 	2.66834e-26
0.3605 	2.86487e-29
0.3612 	2.43008e-29
0.3619 	1.98321e-29
0.3626 	1.53541e-29
0.3633 	1.08761e-29
0.364 	6.39816e-30
0.3647 	1.92018e-30
0.3654 	1.41964e-33
0.3661 	1.20865e-33
0.3668 	9.92811e-34
0.3675 	7.75645e-34
0.3682 	5.58478e-34
0.3689 	3.41311e-34
0.3696 	1.24144e-34
0.3703 	6.8987e-38
0.371 	5.89468e-38
0.3717 	4.8718e-38
0.3724 	3.83843e-38
0.3731 	2.80507e-38
0.3738 	1.7717e-38
0.3745 	7.38337e-39
0.3752 	3.22248e-42
0.3759 	2.76319e-42
0.3766 	2.29708e-42
0.3773 	1.82417e-42
0.378 	1.35126e-42
0.3787 	8.78354e-43
0.3794 	4.05444e-43
0.3801 	1.43722e-46
0.3808 	1.23656e-46
0.3815 	1.03372e-46
0.3822 	8.26987e-47
0.3829 	6.2025e-47
0.3836 	4.13512e-47
0.3843 	2.06775e-47
0.385 	6.12699e-51
0.3857 	5.28844e-51
0.3864 	4.44454e-51
0.3871 	3.58035e-51
0.3878 	2.71616e-51
0.3885 	1.85198e-51
0.3892 	9.87788e-52
0.3899 	1.23602e-52
0.3906 	2.17423e-55
0.3913 	1.83655e-55
0.392 	1.4891e-55
0.3927 	1.14166e-55
0.3934 	7.94215e-56
0.3941 	4.4677e-56
0.3948 	9.93253e-57
0.3955 	8.64256e-60
0.3962 	7.33246e-60
0.3969 	5.98417e-60
0.3976 	4.63295e-60
0.3983 	3.28174e-60
0.399 	1.93052e-60
0.3997 	5.79298e-61
0.4004 	3.34138e-64
0.4011 	2.84562e-64
0.4018 	2.33762e-64
0.4025 	1.82628e-64
0.4032 	1.31494e-64
0.4039 	8.03605e-65
0.4046 	2.92267e-65
0.4053 	1.26106e-68
0.406 	1.07783e-68
0.4067 	8.90902e-69
0.4074 	7.01928e-69
0.4081 	5.12955e-69
0.4088 	3.23981e-69
0.4095 	1.35007e-69
0.4102 	4.65713e-73
0.4109 	3.99411e-73
0.4116 	3.32076e-73
0.4123 	2.63709e-73
0.413 	1.95343e-73
0.4137 	1.26976e-73
0.4144 	5.8609e-74
0.4151 	1.68383e-77
0.4158 	1.44884e-77
0.4165 	1.21127e-77
0.4172 	9.69021e-78
0.4179 	7.26773e-78
0.4186 	4.84525e-78
0.4193 	2.42278e-78
0.42 	5.95908e-82
0.4207 	5.14346e-82
0.4214 	4.32265e-82
0.4221 	3.48215e-82
0.4228 	2.64166e-82
0.4235 	1.80116e-82
0.4242 	9.60666e-83
0.4249 	1.20171e-83
0.4256 	1.78567e-86
0.4263 	1.50819e-86
0.427 	1.22286e-86
0.4277 	9.37533e-87
0.4284 	6.52207e-87
0.4291 	3.6688e-87
0.4298 	8.1554e-88
0.4305 	6.05831e-91
0.4312 	5.13916e-91
0.4319 	4.19412e-91
0.4326 	3.24708e-91
0.4333 	2.30005e-91
0.434 	1.35301e-91
0.4347 	4.05974e-92
0.4354 	2.00803e-95
0.4361 	1.7098e-95
0.4368 	1.4045e-95
0.4375 	1.09727e-95
0.4382 	7.90043e-96
0.4389 	4.82816e-96
0.4396 	1.75589e-96
0.4403 	6.49322e-100
0.441 	5.54372e-100
0.4417 	4.57853e-100
0.4424 	3.60462e-100
0.4431 	2.6307e-100
0.4438 	1.65679e-100
0.4445 	6.82881e-101
0.4452 	-1.32613e-102
0.4459 	-1.5406e-102
0.4466 	-1.64936e-102
0.4473 	-1.65239e-102
0.448 	-1.65542e-102
0.4487 	-1.65845e-102
0.4494 	-1.66148e-102
0.4501 	-1.64611e-102
0.4508 	-1.52022e-102
0.4515 	-1.43929e-102
0.4522 	-1.4393e-102
0.4529 	-1.43931e-102
0.4536 	-1.43931e-102
0.4543 	-1.43932e-102
0.455 	-1.43933e-102
0.4557 	-1.22283e-102
0.4564 	-1.0527e-102
0.4571 	-1.0527e-102
0.4578 	-1.0527e-102
0.4585 	-1.05269e-102
0.4592 	-1.05269e-102
0.4599 	-1.05269e-102
0.4606 	-8.80033e-103
0.4613 	-6.92964e-103
0.462 	-6.92958e-103
0.4627 	-6.92951e-103
0.4634 	-6.92945e-103
0.4641 	-6.92939e-103
0.4648 	-6.92933e-103
0.4655 	-5.83612e-103
0.4662 	-4.30537e-103
0.4669 	-4.19598e-103
0.4676 	-4.19592e-103
0.4683 	-4.19586e-103
0.469 	-4.1958e-103
0.4697 	-4.19574e-103
0.4704 	-3.6089e-103
0.4711 	-2.58173e-103
0.4718 	-2.36159e-103
0.4725 	-2.36155e-103
0.4732 	-2.3615e-103
0.4739 	-2.36146e-103
0.4746 	-2.36141e-103
0.4753 	-2.09312e-103
0.476 	-1.46698e-103
0.4767 	-1.24334e-103
0.4774 	-1.24331e-103
0.4781 	-1.24328e-103
0.4788 	-1.24325e-103
0.4795 	-1.24322e-103
0.4802 	-1.14275e-103
0.4809 	-7.91023e-104
0.4816 	-6.1515e-104
0.4823 	-6.15132e-104
0.483 	-6.15114e-104
0.4837 	-6.15096e-104
0.4844 	-6.15078e-104
0.4851 	-5.88846e-104
0.4858 	-4.05163e-104
0.4865 	-2.87077e-104
0.4872 	-2.87067e-104
0.4879 	-2.87057e-104
0.4886 	-2.87047e-104
0.4893 	-2.87038e-104
0.49 	-2.87029e-104
0.4907 	-1.9729e-104
0.4914 	-1.26772e-104
0.4921 	-1.26767e-104
0.4928 	-1.26762e-104
0.4935 	-1.26757e-104
0.4942 	-1.26751e-104
0.4949 	-1.26746e-104
0.4956 	-9.14076e-105
0.4963 	-5.31188e-105
0.497 	-5.31163e-105
0.4977 	-5.31138e-105
0.4984 	-5.31113e-105
0.4991 	-5.31088e-105
0.4998 	-5.31063e-105
0.5005 	-4.03337e-105
0.5012 	-2.24498e-105
0.5019 	-2.11714e-105
0.5026 	-2.11702e-105
0.5033 	-2.11691e-105
0.504 	-2.11679e-105
0.5047 	-2.11668e-105
0.5054 	-1.69682e-105
0.5061 	-9.61989e-106
0.5068 	-8.04486e-106
0.5075 	-8.04437e-106
0.5082 	-8.04389e-106
0.5089 	-8.0434e-106
0.5096 	-8.04291e-106
0.5103 	-6.81359e-106
0.511 	-3.94493e-106
0.5117 	-2.92028e-106
0.5124 	-2.92008e-106
0.5131 	-2.91989e-106
0.5138 	-2.91969e-106
0.5145 	-2.91949e-106
0.5152 	-2.61472e-106
0.5159 	-1.54802e-106
0.5166 	-1.01464e-106
0.5173 	-1.01456e-106
0.518 	-1.01448e-106
0.5187 	-1.01441e-106
0.5194 	-1.01433e-106
0.5201 	-9.60209e-107
0.5208 	-5.81456e-107
0.5215 	-3.37962e-107
0.5222 	-3.37934e-107
0.5229 	-3.37906e-107
0.5236 	-3.37878e-107
0.5243 	-3.3785e-107
0.525 	-3.37824e-107
0.5257 	-2.09183e-107
0.5264 	-1.08094e-107
0.5271 	-1.08085e-107
0.5278 	-1.08075e-107
0.5285 	-1.08065e-107
0.5292 	-1.08055e-107
0.5299 	-1.08045e-107
0.5306 	-7.21456e-108
0.5313 	-3.32494e-108
0.532 	-3.32461e-108
0.5327 	-3.32428e-108
0.5334 	-3.32395e-108
0.5341 	-3.32362e-108
0.5348 	-3.3233e-108
0.5355 	-2.38794e-108
0.5362 	-1.07833e-108
0.5369 	-9.84691e-109
0.5376 	-9.84586e-109
0.5383 	-9.8448e-109
0.539 	-9.84375e-109
0.5397 	-9.8427e-109
0.5404 	-7.593e-109
0.5411 	-3.65589e-109
0.5418 	-2.81197e-109
0.5425 	-2.81165e-109
0.5432 	-2.81132e-109
0.5439 	-2.811e-109
0.5446 	-2.81067e-109
0.5453 	-2.32216e-109
0.546 	-1.18237e-109
0.5467 	-7.75244e-110
0.5474 	-7.75147e-110
0.5481 	-7.75051e-110
0.5488 	-7.74955e-110
0.5495 	-7.74858e-110
0.5502 	-6.83908e-110
0.5509 	-3.65671e-110
0.5516 	-2.06539e-110
0.5523 	-2.06512e-110
0.553 	-2.06484e-110
0.5537 	-2.06457e-110
0.5544 	-2.06429e-110
0.5551 	-1.94163e-110
0.5558 	-1.0838e-110
0.5565 	-5.32313e-111
0.5572 	-5.32238e-111
0.5579 	-5.32162e-111
0.5586 	-5.32087e-111
0.5593 	-5.32011e-111
0.56 	-5.3194e-111
0.5607 	-3.0847e-111
0.5614 	-1.32861e-111
0.5621 	-1.32841e-111
0.5628 	-1.32821e-111
0.5635 	-1.32801e-111
0.5642 	-1.32781e-111
0.5649 	-1.32761e-111
0.5656 	-8.44669e-112
0.5663 	-3.2143e-112
0.567 	-3.21378e-112
0.5677 	-3.21327e-112
0.5684 	-3.21275e-112
0.5691 	-3.21224e-112
0.5698 	-3.21172e-112
0.5705 	-2.2288e-112
0.5712 	-8.52657e-113
0.5719 	-7.54242e-113
0.5726 	-7.54115e-113
0.5733 	-7.53987e-113
0.574 	-7.53859e-113
0.5747 	-7.53731e-113
0.5754 	-5.67536e-113
0.5761 	-2.41711e-113
0.5768 	-1.71867e-113
0.5775 	-1.71836e-113
0.5782 	-1.71805e-113
0.5789 	-1.71774e-113
0.5796 	-1.71744e-113
0.5803 	-1.39655e-113
0.581 	-6.47972e-114
0.5817 	-3.80577e-114
0.5824 	-3.80505e-114
0.5831 	-3.80434e-114
0.5838 	-3.80362e-114
0.5845 	-3.80291e-114
0.5852 	-3.32535e-114
0.5859 	-1.65486e-114
0.5866 	-8.19535e-115
0.5873 	-8.19373e-115
0.588 	-8.19211e-115
0.5887 	-8.19049e-115
0.5894 	-8.18887e-115
0.5901 	-7.67035e-115
0.5908 	-4.04686e-115
0.5915 	-1.71734e-115
0.5922 	-1.71699e-115
0.5929 	-1.71663e-115
0.5936 	-1.71627e-115
0.5943 	-1.71592e-115
0.595 	-1.71558e-115
0.5957 	-9.5115e-116
0.5964 	-3.5044e-116
0.5971 	-3.50364e-116
0.5978 	-3.50288e-116
0.5985 	-3.50212e-116
0.5992 	-3.50136e-116
0.5999 	-3.5006e-116
0.6006 	-2.15486e-116
0.6013 	-6.96843e-117
0.602 	-6.96685e-117
0.6027 	-6.96527e-117
0.6034 	-6.96369e-117
0.6041 	-6.96211e-117
0.6048 	-6.96053e-117
0.6055 	-4.71682e-117
0.6062 	-1.57563e-117
0.6069 	-1.35096e-117
0.6076 	-1.35064e-117
0.6083 	-1.35032e-117
0.609 	-1.35e-117
0.6097 	-1.34968e-117
0.6104 	-9.99554e-118
0.6111 	-3.86917e-118
0.6118 	-2.55588e-118
0.6125 	-2.55525e-118
0.6132 	-2.55462e-118
0.6139 	-2.55399e-118
0.6146 	-2.55336e-118
0.6153 	-2.05371e-118
0.616 	-8.88331e-119
0.6167 	-4.72045e-119
0.6174 	-4.71924e-119
0.6181 	-4.71803e-119
0.6188 	-4.71682e-119
0.6195 	-4.71561e-119
0.6202 	-4.09691e-119
0.6209 	-1.93343e-119
0.6216 	-8.51568e-120
0.6223 	-8.51342e-120
0.623 	-8.51115e-120
0.6237 	-8.50889e-120
0.6244 	-8.50662e-120
0.6251 	-7.94494e-120
0.6258 	-4.02285e-120
0.6265 	-1.50137e-120
0.6272 	-1.50095e-120
0.6279 	-1.50054e-120
0.6286 	-1.50012e-120
0.6293 	-1.49971e-120
0.63 	-1.49931e-120
0.6307 	-8.04688e-121
0.6314 	-2.58833e-121
0.6321 	-2.58759e-121
0.6328 	-2.58685e-121
0.6335 	-2.58611e-121
0.6342 	-2.58537e-121
0.6349 	-2.58463e-121
0.6356 	-1.55361e-121
0.6363 	-4.36595e-122
0.637 	-4.36466e-122
0.6377 	-4.36337e-122
0.6384 	-4.36207e-122
0.6391 	-4.36078e-122
0.6398 	-4.35949e-122
0.6405 	-2.90397e-122
0.6412 	-8.66343e-123
0.6419 	-7.20594e-123
0.6426 	-7.20373e-123
0.6433 	-7.20153e-123
0.644 	-7.19932e-123
0.6447 	-7.19711e-123
0.6454 	-5.26661e-123
0.6461 	-1.88903e-123
0.6468 	-1.16498e-123
0.6475 	-1.16461e-123
0.6482 	-1.16424e-123
0.6489 	-1.16387e-123
0.6496 	-1.1635e-123
0.6503 	-9.28454e-124
0.651 	-3.80314e-124
0.6517 	-1.84511e-124
0.6524 	-1.84451e-124
0.6531 	-1.8439e-124
0.6538 	-1.8433e-124
0.6545 	-1.8427e-124
0.6552 	-1.59344e-124
0.6559 	-7.22116e-125
0.6566 	-2.86405e-125
0.6573 	-2.86309e-125
0.658 	-2.86212e-125
0.6587 	-2.86116e-125
0.6594 	-2.86019e-125
0.6601 	-2.66567e-125
0.6608 	-1.30843e-125
0.6615 	-4.35868e-126
0.6622 	-4.35717e-126
0.6629 	-4.35565e-126
0.6636 	-4.35414e-126
0.6643 	-4.35263e-126
0.665 	-4.35115e-126
0.6657 	-2.27896e-126
0.6664 	-6.50563e-127
0.6671 	-6.5033e-127
0.6678 	-6.50098e-127
0.6685 	-6.49865e-127
0.6692 	-6.49633e-127
0.6699 	-6.494e-127
0.6706 	-3.83419e-127
0.6713 	-9.52592e-128
0.672 	-9.52241e-128
0.6727 	-9.51891e-128
0.6734 	-9.51541e-128
0.6741 	-9.5119e-128
0.6748 	-9.5084e-128
0.6755 	-6.25231e-128
0.6762 	-1.69429e-128
0.6769 	-1.36823e-128
0.6776 	-1.36772e-128
0.6783 	-1.3672e-128
0.679 	-1.36668e-128
0.6797 	-1.36616e-128
0.6804 	-9.90674e-129
0.6811 	-3.33793e-129
0.6818 	-1.92974e-129
0.6825 	-1.92899e-129
0.6832 	-1.92824e-129
0.6839 	-1.92749e-129
0.6846 	-1.92674e-129
0.6853 	-1.52825e-129
0.686 	-5.99125e-130
0.6867 	-2.67227e-130
0.6874 	-2.6712e-130
0.6881 	-2.67013e-130
0.6888 	-2.66905e-130
0.6895 	-2.66798e-130
0.6902 	-2.29847e-130
0.6909 	-1.00721e-130
0.6916 	-3.61502e-131
0.6923 	-3.61352e-131
0.693 	-3.61202e-131
0.6937 	-3.61052e-131
0.6944 	-3.60901e-131
0.6951 	-3.31948e-131
0.6958 	-1.2997e-131
0.6965 	-1.19963e-134
0.6972 	-9.93468e-135
0.6979 	-7.87308e-135
0.6986 	-5.81147e-135
0.6993 	-3.74987e-135
0.7 	-1.68857e-135
