0 	1
0.0007 	1
0.0014 	1
0.0021 	1
0.0028 	1
0.0035 	1
0.0042 	1
0.0049 	1
0.0056 	1
0.0063 	1
0.007 	1
0.0077 	1
0.0084 	1
0.0091 	1
0.0098 	1
0.0105 	1
0.0112 	1
0.0119 	1
0.0126 	1
0.0133 	1
0.014 	1
0.0147 	1
0.0154 	1
0.0161 	1
0.0168 	1
0.0175 	1
0.0182 	1
0.0189 	1
0.0196 	1
0.0203 	1
0.021 	1
0.0217 	1
0.0231 	1
0.0245 	1
0.0252 	1
0.0259 	1
0.0266 	1
0.0273 	1
0.028 	1
0.0287 	1
0.0294 	1
0.0301 	1
0.0315 	1
0.0322 	1
0.0329 	1
0.0336 	1
0.0343 	1
0.035 	1
0.0357 	1
0.0364 	1
0.0371 	1
0.0378 	1
0.0385 	1
0.0392 	1
0.0399 	1
0.0406 	1
0.0413 	1
0.042 	1
0.0427 	1
0.0434 	1
0.0441 	1
0.0448 	1
0.0455 	1
0.0462 	1
0.0469 	1
0.0476 	1
0.0483 	1
0.049 	1
0.0497 	1
0.0504 	1
0.0511 	1
0.0518 	1
0.0525 	1
0.0532 	1
0.0539 	1
0.0546 	1
0.0553 	1
0.056 	1
0.0567 	1
0.0574 	1
0.0581 	1
0.0588 	1
0.0595 	1
0.0602 	1
0.0609 	1
0.0616 	1
0.0623 	1
0.063 	1
0.0637 	1
0.0644 	1
0.0651 	1
0.0658 	1
0.0665 	1
0.0672 	1
0.0679 	1
0.0686 	1
0.0693 	1
0.07 	1
0.0707 	1
0.0714 	1
0.0721 	1
0.0728 	1
0.0735 	1
0.0742 	1
0.0749 	1
0.0756 	1
0.0763 	1
0.077 	1
0.0777 	1
0.0784 	1
0.0791 	1
0.0798 	1
0.0805 	1
0.0812 	1
0.0819 	1
0.0826 	1
0.0833 	1
0.084 	1
0.0847 	1
0.0854 	1
0.0861 	1
0.0868 	1
0.0875 	1
0.0882 	1
0.0889 	1
0.0896 	1
0.0903 	1
0.091 	1
0.0917 	1
0.0924 	1
0.0931 	1
0.0938 	1
0.0945 	1
0.0952 	1
0.0959 	1
0.0966 	1
0.0973 	1
0.098 	1
0.0987 	1
0.0994 	1
0.1001 	1
0.1015 	1
0.1022 	1
0.1029 	1
0.1036 	1
0.1043 	1
0.105 	1
0.1057 	1
0.1064 	1
0.1071 	1
0.1078 	1
0.1085 	1
0.1092 	1
0.1099 	1
0.1106 	1
0.1113 	1
0.112 	1
0.1127 	1
0.1134 	1
0.1141 	1
0.1148 	1
0.1155 	1
0.1162 	1
0.1169 	1
0.1176 	1
0.1183 	1
0.119 	1
0.1197 	1
0.1204 	1
0.1211 	1
0.1218 	1
0.1225 	1
0.1232 	1
0.1239 	1
0.1246 	1
0.1253 	1
0.126 	1
0.1267 	1
0.1274 	1
0.1281 	1
0.1288 	1
0.1295 	1
0.1302 	1
0.1309 	1
0.1316 	1
0.1323 	1
0.133 	1
0.1337 	1
0.1344 	1
0.1351 	1
0.1358 	1
0.1365 	1
0.1372 	1
0.1379 	1
0.1386 	1
0.1393 	1
0.14 	1
0.1407 	1
0.1414 	1
0.1421 	1
0.1428 	1
0.1435 	1
0.1442 	1
0.1449 	1
0.1456 	1
0.1463 	1
0.147 	1
0.1477 	1
0.1484 	1
0.1491 	1
0.1498 	1
0.1505 	1
0.1512 	1
0.1519 	1
0.1526 	1
0.1533 	1
0.154 	1
0.1547 	1
0.1554 	1
0.1561 	1
0.1568 	1
0.1575 	1
0.1582 	1
0.1589 	1
0.1596 	1
0.1603 	1
0.161 	1
0.1624 	1
0.1631 	1
0.1638 	1
0.1645 	1
0.1652 	1
0.1659 	1
0.1666 	1
0.1673 	1
0.168 	1
0.1687 	1
0.1694 	1
0.1701 	1
0.1708 	1
0.1715 	1
0.1722 	1
0.1729 	1
0.1736 	1
0.1743 	1
0.175 	1
0.1757 	1
0.1764 	1
0.1771 	1
0.1778 	1
0.1785 	1
0.1792 	1
0.1799 	1
0.1806 	1
0.1813 	1
0.182 	1
0.1827 	1
0.1834 	1
0.1841 	1
0.1848 	1
0.1855 	1
0.1869 	1
0.1876 	1
0.1883 	1
0.189 	1
0.1897 	1
0.1904 	1
0.1911 	1
0.1918 	1
0.1925 	1
0.1932 	1
0.1939 	1
0.1946 	1
0.1953 	1
0.196 	1
0.1967 	1
0.1974 	1
0.1981 	1
0.1988 	1
0.1995 	1
0.2002 	1
0.2009 	1
0.2016 	1
0.2023 	1
0.203 	1
0.2037 	1
0.2044 	1
0.2051 	1
0.2058 	1
0.2065 	1
0.2072 	1
0.2079 	1
0.2086 	1
0.2093 	1
0.21 	1
0.2107 	1
0.2121 	1
0.2128 	1
0.2135 	1
0.2142 	1
0.2149 	1
0.2156 	0.999998
0.2163 	0.999997
0.217 	0.999995
0.2177 	0.999993
0.2184 	0.999991
0.2191 	0.99999
0.2198 	0.999988
0.2205 	0.999914
0.2212 	0.999812
0.2219 	0.999709
0.2226 	0.999606
0.2233 	0.999504
0.224 	0.999401
0.2247 	0.999299
0.2254 	0.998019
0.2261 	0.995856
0.2268 	0.993694
0.2275 	0.991531
0.2282 	0.989369
0.2289 	0.987206
0.2296 	0.985044
0.2303 	0.969272
0.231 	0.935354
0.2317 	0.901436
0.2331 	0.833602
0.2338 	0.799685
0.2345 	0.765767
0.2352 	0.723222
0.2359 	0.659106
0.2366 	0.594991
0.2373 	0.530876
0.238 	0.46676
0.2387 	0.402645
0.2394 	0.338529
0.2401 	0.278437
0.2408 	0.242488
0.2415 	0.206537
0.2422 	0.170587
0.2429 	0.134636
0.2436 	0.0986855
0.2443 	0.0627348
0.245 	0.0267842
0.2457 	0.0230641
0.2464 	0.019344
0.2471 	0.0156237
0.2478 	0.0119034
0.2485 	0.00818309
0.2492 	0.00446279
0.2499 	0.0007425
0.2506 	0.000185711
0.2513 	0.000156172
0.2527 	9.70904e-05
0.2534 	6.75495e-05
0.2541 	3.80085e-05
0.2548 	8.4676e-06
0.2555 	2.46006e-08
0.2562 	2.07747e-08
0.2569 	1.69487e-08
0.2576 	1.31227e-08
0.2583 	9.29667e-09
0.259 	5.47065e-09
0.2597 	1.64464e-09
0.2604 	4.62156e-12
0.2611 	4.09472e-12
0.2618 	3.56844e-12
0.2625 	3.04232e-12
0.2632 	2.51621e-12
0.2639 	1.99009e-12
0.2646 	1.46397e-12
0.2653 	1.10514e-12
0.266 	9.69348e-13
0.2667 	8.3364e-13
0.2674 	6.97976e-13
0.2681 	5.62313e-13
0.2688 	4.2665e-13
0.2695 	2.90986e-13
0.2702 	1.87647e-13
0.2709 	1.65116e-13
0.2716 	1.42596e-13
0.2723 	1.20086e-13
0.273 	9.75755e-14
0.2737 	7.50653e-14
0.2744 	5.25552e-14
0.2751 	3.26808e-14
0.2758 	2.86209e-14
0.2765 	2.45626e-14
0.2772 	2.0507e-14
0.2779 	1.64513e-14
0.2786 	1.23957e-14
0.2793 	8.34007e-15
0.28 	4.28444e-15
0.2814 	3.2078e-15
0.2821 	2.67001e-15
0.2828 	2.13222e-15
0.2835 	1.59443e-15
0.2842 	1.05664e-15
0.2849 	5.18854e-16
0.2856 	3.92534e-16
0.2863 	3.34798e-16
0.287 	2.77126e-16
0.2877 	2.19454e-16
0.2884 	1.61782e-16
0.2891 	1.0411e-16
0.2898 	4.64377e-17
0.2905 	2.70615e-17
0.2912 	2.30036e-17
0.2919 	1.89508e-17
0.2926 	1.48983e-17
0.2933 	1.08459e-17
0.294 	6.79342e-18
0.2947 	2.74096e-18
0.2954 	9.24635e-19
0.2961 	7.85408e-19
0.2968 	6.46344e-19
0.2975 	5.07323e-19
0.2982 	3.68303e-19
0.2989 	2.29283e-19
0.2996 	9.02624e-20
0.3003 	1.01731e-20
0.301 	8.65854e-21
0.3017 	7.14555e-21
0.3024 	5.63343e-21
0.3031 	4.12131e-21
0.3038 	2.60919e-21
0.3045 	1.09707e-21
0.3052 	1.62988e-23
0.3059 	1.39197e-23
0.3066 	1.15424e-23
0.3073 	9.1671e-24
0.308 	6.79176e-24
0.3087 	4.41642e-24
0.3094 	2.04108e-24
0.3101 	4.96809e-27
0.3108 	4.25763e-27
0.3115 	3.5476e-27
0.3122 	2.83832e-27
0.3129 	2.12904e-27
0.3136 	1.41976e-27
0.3143 	7.10482e-28
0.315 	1.20324e-30
0.3157 	1.03461e-30
0.3164 	8.66038e-31
0.3178 	5.29355e-31
0.3185 	3.61014e-31
0.3192 	1.92672e-31
0.3199 	2.43304e-32
0.3206 	2.47776e-34
0.3213 	2.08315e-34
0.322 	1.68914e-34
0.3227 	1.29513e-34
0.3234 	9.01126e-35
0.3241 	5.07119e-35
0.3248 	1.13113e-35
0.3255 	4.8536e-38
0.3262 	4.09775e-38
0.3269 	3.34299e-38
0.3276 	2.58832e-38
0.3283 	1.83364e-38
0.329 	1.07897e-38
0.3297 	3.2429e-39
0.3304 	7.88996e-42
0.3311 	6.68808e-42
0.3318 	5.48756e-42
0.3325 	4.28741e-42
0.3332 	3.08726e-42
0.3339 	1.88712e-42
0.3346 	6.86969e-43
0.3353 	1.09994e-45
0.336 	9.35964e-46
0.3367 	7.72131e-46
0.3374 	6.08376e-46
0.3381 	4.4462e-46
0.3388 	2.80865e-46
0.3395 	1.17109e-46
0.3402 	1.35131e-49
0.3409 	1.15408e-49
0.3416 	9.56973e-50
0.3423 	7.59981e-50
0.343 	5.62988e-50
0.3437 	3.65996e-50
0.3444 	1.69003e-50
0.3451 	1.49285e-53
0.3458 	1.27943e-53
0.3465 	1.06609e-53
0.3479 	6.39715e-54
0.3486 	4.26527e-54
0.3493 	2.13339e-54
0.35 	1.50541e-57
0.3507 	1.29452e-57
0.3514 	1.08367e-57
0.3521 	8.72986e-58
0.3528 	6.62298e-58
0.3535 	4.51611e-58
0.3542 	2.40923e-58
0.3549 	3.02356e-59
0.3556 	1.20915e-61
0.3563 	1.01668e-61
0.357 	8.24353e-62
0.3577 	6.32032e-62
0.3591 	2.47388e-62
0.3605 	1.05202e-65
0.3612 	8.88287e-66
0.3619 	7.24665e-66
0.3633 	3.97439e-66
0.364 	2.33826e-66
0.3647 	7.02132e-67
0.3654 	8.58776e-70
0.3661 	7.28038e-70
0.3668 	5.97363e-70
0.3675 	4.66705e-70
0.3682 	3.36048e-70
0.3689 	2.0539e-70
0.3696 	7.4732e-71
0.3703 	6.61644e-74
0.371 	5.63071e-74
0.3717 	4.64528e-74
0.3724 	3.66002e-74
0.3731 	2.67477e-74
0.3738 	1.68951e-74
0.3745 	7.04258e-75
0.3752 	4.83506e-78
0.3766 	3.42466e-78
0.3773 	2.71965e-78
0.378 	2.01465e-78
0.3787 	1.30964e-78
0.3794 	6.04634e-79
0.3801 	3.36518e-82
0.3808 	2.88438e-82
0.3815 	2.40363e-82
0.3822 	1.92294e-82
0.3829 	1.44226e-82
0.3836 	9.61584e-83
0.3843 	4.80904e-83
0.385 	2.23852e-86
0.3857 	1.92512e-86
0.3864 	1.61172e-86
0.3871 	1.29836e-86
0.3878 	9.84997e-87
0.3885 	6.71633e-87
0.3892 	3.5827e-87
0.3899 	4.49062e-88
0.3906 	1.23149e-90
0.3913 	1.03559e-90
0.392 	8.39681e-91
0.3927 	6.43775e-91
0.3934 	4.47869e-91
0.3941 	2.51963e-91
0.3948 	5.60572e-92
0.3955 	7.56966e-95
0.3962 	6.39236e-95
0.3969 	5.21492e-95
0.3976 	4.03746e-95
0.3983 	2.86001e-95
0.399 	1.68256e-95
0.3997 	5.05109e-96
0.4004 	4.48061e-99
0.4011 	3.79896e-99
0.4018 	3.11717e-99
0.4032 	1.75353e-99
0.4039 	1.07171e-99
0.4046 	3.89885e-100
0.4053 	2.55879e-103
0.406 	2.17783e-103
0.4067 	1.79678e-103
0.4074 	1.41567e-103
0.4081 	1.03457e-103
0.4088 	6.53467e-104
0.4095 	2.72364e-104
0.4102 	1.41217e-107
0.4109 	1.20632e-107
0.4116 	1.00042e-107
0.4123 	7.94469e-108
0.413 	5.88516e-108
0.4137 	3.82562e-108
0.4144 	1.76609e-108
0.4151 	7.54295e-112
0.4158 	6.46596e-112
0.4165 	5.38873e-112
0.4172 	4.31106e-112
0.4179 	3.23339e-112
0.4186 	2.15572e-112
0.4193 	1.07806e-112
0.42 	3.90456e-116
0.4207 	3.35826e-116
0.4214 	2.81186e-116
0.4228 	1.71844e-116
0.4242 	6.25008e-117
0.4249 	7.82943e-118
0.4256 	1.69216e-120
0.4263 	1.42315e-120
0.427 	1.15392e-120
0.4277 	8.84695e-121
0.4284 	6.15468e-121
0.4291 	3.46241e-121
0.4298 	7.7014e-122
0.4305 	8.2815e-125
0.4312 	6.99441e-125
0.4319 	5.70612e-125
0.4326 	4.41774e-125
0.4333 	3.12936e-125
0.434 	1.84097e-125
0.4347 	5.52592e-126
0.4354 	3.94078e-129
0.4361 	3.34168e-129
0.4368 	2.74204e-129
0.4375 	2.14226e-129
0.4382 	1.54248e-129
0.4389 	9.42705e-130
0.4396 	3.42925e-130
0.4403 	1.82515e-133
0.441 	1.5536e-133
0.4417 	1.28184e-133
0.4424 	1.00995e-133
0.4431 	7.38063e-134
0.4438 	4.66177e-134
0.4445 	1.9429e-134
0.4452 	8.23514e-138
0.4459 	7.03552e-138
0.4466 	5.83508e-138
0.4473 	4.63382e-138
0.448 	3.43255e-138
0.4487 	2.23129e-138
0.4494 	1.03003e-138
0.4501 	3.62324e-142
0.4515 	2.58898e-142
0.4529 	1.55345e-142
0.4536 	1.03569e-142
0.4543 	5.17924e-143
0.455 	1.5919e-146
0.4557 	1.37355e-146
0.4564 	1.15513e-146
0.4571 	9.36425e-147
0.4578 	7.17725e-147
0.4585 	4.99024e-147
0.4592 	2.80324e-147
0.4599 	6.16237e-148
0.4606 	2.77331e-148
0.4613 	2.4644e-148
0.462 	2.15546e-148
0.4627 	1.84652e-148
0.4634 	1.53758e-148
0.4641 	1.22864e-148
0.4648 	9.19701e-149
0.4655 	7.718e-149
0.4662 	6.88315e-149
0.4669 	6.04801e-149
0.4676 	5.21285e-149
0.4683 	4.37769e-149
0.469 	3.54253e-149
0.4697 	2.70737e-149
0.4704 	2.21121e-149
0.4711 	1.96929e-149
0.4718 	1.72729e-149
0.4725 	1.48525e-149
0.4732 	1.24322e-149
0.4739 	1.00118e-149
0.4746 	7.59149e-150
0.4753 	5.9255e-150
0.476 	5.2653e-150
0.4767 	4.60484e-150
0.4774 	3.94425e-150
0.4781 	3.28365e-150
0.4788 	2.62305e-150
0.4795 	1.96245e-150
0.4802 	1.44403e-150
0.4809 	1.28106e-150
0.4816 	1.11802e-150
0.4823 	9.54932e-151
0.483 	7.91839e-151
0.4837 	6.28747e-151
0.4844 	4.65654e-151
0.4851 	3.20657e-151
0.4858 	2.84232e-151
0.4865 	2.47795e-151
0.4872 	2.11338e-151
0.4879 	1.74881e-151
0.4886 	1.38423e-151
0.4893 	1.01966e-151
0.49 	6.5509e-152
0.4907 	5.80545e-152
0.4914 	5.05985e-152
0.4921 	4.31366e-152
0.4928 	3.56748e-152
0.4935 	2.82129e-152
0.4942 	2.0751e-152
0.4949 	1.32892e-152
0.4956 	1.10133e-152
0.4963 	9.60172e-153
0.497 	8.18864e-153
0.4977 	6.77557e-153
0.4984 	5.36249e-153
0.4991 	3.94942e-153
0.4998 	2.53634e-153
0.5005 	1.95451e-153
0.5012 	1.70519e-153
0.5019 	1.45558e-153
0.5026 	1.20594e-153
0.5033 	9.56313e-154
0.504 	7.06682e-154
0.5047 	4.57051e-154
0.5054 	3.26433e-154
0.5061 	2.85075e-154
0.5068 	2.43675e-154
0.5075 	2.02262e-154
0.5082 	1.6085e-154
0.5089 	1.19438e-154
0.5096 	7.80257e-155
0.5103 	5.15845e-155
0.511 	4.51047e-155
0.5117 	3.8619e-155
0.5124 	3.213e-155
0.5131 	2.5641e-155
0.5138 	1.9152e-155
0.5145 	1.2663e-155
0.5152 	7.75252e-156
0.5159 	6.78835e-156
0.5166 	5.82346e-156
0.5173 	4.85784e-156
0.518 	3.89222e-156
0.5187 	2.92659e-156
0.5194 	1.96097e-156
0.5201 	1.11373e-156
0.5208 	9.76757e-157
0.5222 	7.02514e-157
0.5229 	5.65321e-157
0.5236 	4.28128e-157
0.5243 	2.90936e-157
0.525 	1.53743e-157
0.5257 	1.35064e-157
0.5264 	1.16379e-157
0.5271 	9.76683e-158
0.5278 	7.89578e-158
0.5285 	6.02472e-158
0.5292 	4.15366e-158
0.5299 	2.2826e-158
0.5306 	1.80457e-158
0.5313 	1.55867e-158
0.532 	1.31235e-158
0.5327 	1.06604e-158
0.5334 	8.19723e-159
0.5341 	5.73409e-159
0.5348 	3.27095e-159
0.5355 	2.34276e-159
0.5362 	2.02856e-159
0.5369 	1.7138e-159
0.5376 	1.39899e-159
0.5383 	1.08418e-159
0.539 	7.69375e-160
0.5397 	4.54568e-160
0.5404 	2.97243e-160
0.5411 	2.5803e-160
0.5418 	2.18754e-160
0.5425 	1.7946e-160
0.5432 	1.40167e-160
0.5439 	1.00873e-160
0.5446 	6.15795e-161
0.5453 	3.70658e-161
0.546 	3.22587e-161
0.5467 	2.74447e-161
0.5474 	2.26269e-161
0.5481 	1.78091e-161
0.5488 	1.29913e-161
0.5495 	8.17348e-162
0.5502 	4.56592e-162
0.5509 	3.98396e-162
0.5516 	3.4013e-162
0.5523 	2.81795e-162
0.553 	2.23459e-162
0.5537 	1.65124e-162
0.5544 	1.06788e-162
0.5551 	5.57883e-163
0.5558 	4.88008e-163
0.5565 	4.18069e-163
0.5572 	3.48012e-163
0.5579 	2.77956e-163
0.5586 	2.079e-163
0.5593 	1.37844e-163
0.56 	6.77874e-164
0.5607 	5.94427e-164
0.5614 	5.10931e-164
0.5621 	4.2725e-164
0.5628 	3.43569e-164
0.5635 	2.59888e-164
0.5642 	1.76207e-164
0.5649 	9.25261e-165
0.5656 	7.20661e-165
0.5663 	6.21406e-165
0.567 	5.21872e-165
0.5677 	4.22338e-165
0.5684 	3.22805e-165
0.5691 	2.23271e-165
0.5698 	1.23737e-165
0.5705 	8.6909e-166
0.5712 	7.51635e-166
0.5719 	6.33824e-166
0.5726 	5.15986e-166
0.5733 	3.98149e-166
0.574 	2.80311e-166
0.5747 	1.62473e-166
0.5754 	1.04077e-166
0.5761 	9.02625e-167
0.5768 	7.64102e-167
0.5775 	6.25475e-167
0.5782 	4.86849e-167
0.5789 	3.48223e-167
0.5796 	2.09596e-167
0.5803 	1.23478e-167
0.581 	1.07371e-167
0.5817 	9.12249e-168
0.5824 	7.50578e-168
0.5831 	5.88906e-168
0.5838 	4.27235e-168
0.5845 	2.65564e-168
0.5852 	1.44778e-168
0.5859 	1.26206e-168
0.5866 	1.07598e-168
0.5873 	8.8954e-169
0.588 	7.03096e-169
0.5887 	5.16652e-169
0.5894 	3.30209e-169
0.5901 	1.67382e-169
0.5908 	1.46258e-169
0.5915 	1.25103e-169
0.5922 	1.03891e-169
0.5929 	8.26798e-170
0.5936 	6.14684e-170
0.5943 	4.0257e-170
0.595 	1.90456e-170
0.5957 	1.66799e-170
0.5964 	1.43119e-170
0.5971 	1.19359e-170
0.5978 	9.55995e-171
0.5985 	7.18397e-171
0.5992 	4.80798e-171
0.5999 	2.432e-171
0.6006 	1.86931e-171
0.6013 	1.60876e-171
0.6027 	1.08547e-171
0.6034 	8.23822e-172
0.6041 	5.62176e-172
0.6048 	3.00531e-172
0.6055 	2.05659e-172
0.6062 	1.77496e-172
0.6069 	1.49211e-172
0.6076 	1.20916e-172
0.6083 	9.26211e-173
0.609 	6.43262e-173
0.6097 	3.60313e-173
0.6104 	2.21974e-173
0.6111 	1.92092e-173
0.6118 	1.62096e-173
0.6125 	1.32069e-173
0.6132 	1.02041e-173
0.6139 	7.20139e-174
0.6146 	4.19865e-174
0.6153 	2.34951e-174
0.616 	2.03851e-174
0.6167 	1.72649e-174
0.6174 	1.41392e-174
0.6181 	1.10134e-174
0.6188 	7.88756e-175
0.6195 	4.76177e-175
0.6202 	2.43836e-175
0.6209 	2.12092e-175
0.6216 	1.80264e-175
0.6223 	1.48353e-175
0.623 	1.16441e-175
0.6237 	8.45298e-176
0.6244 	5.26183e-176
0.6251 	2.48117e-176
0.6258 	2.16341e-176
0.6265 	1.84503e-176
0.6272 	1.52554e-176
0.6279 	1.20604e-176
0.6286 	8.86549e-177
0.6293 	5.67056e-177
0.63 	2.47563e-177
0.6307 	2.16367e-177
0.6314 	1.85134e-177
0.6321 	1.53763e-177
0.6328 	1.22391e-177
0.6335 	9.10198e-178
0.6342 	5.96483e-178
0.6349 	2.82769e-178
0.6356 	2.12204e-178
0.6363 	1.82151e-178
0.637 	1.51935e-178
0.6377 	1.2172e-178
0.6384 	9.15043e-179
0.6391 	6.12888e-179
0.6398 	3.10733e-179
0.6405 	2.04131e-179
0.6412 	1.7575e-179
0.6419 	1.47211e-179
0.6426 	1.18659e-179
0.6433 	9.01077e-180
0.644 	6.15561e-180
0.6447 	3.30044e-180
0.6454 	1.92645e-180
0.6461 	1.66334e-180
0.6468 	1.39894e-180
0.6475 	1.1342e-180
0.6482 	8.69447e-181
0.6489 	6.04699e-181
0.6496 	3.3995e-181
0.6503 	1.78405e-181
0.651 	1.54463e-181
0.6517 	1.30422e-181
0.6524 	1.06326e-181
0.6531 	8.22303e-182
0.6538 	5.81346e-182
0.6545 	3.40389e-182
0.6552 	1.62165e-182
0.6559 	1.40776e-182
0.6566 	1.19317e-182
0.6573 	9.7786e-183
0.658 	7.62555e-183
0.6587 	5.4725e-183
0.6594 	3.31945e-183
0.6601 	1.44717e-183
0.6608 	1.25953e-183
0.6615 	1.07143e-183
0.6622 	8.82509e-184
0.6629 	6.93587e-184
0.6636 	5.04666e-184
0.6643 	3.15744e-184
0.665 	1.26822e-184
0.6657 	1.10654e-184
0.6664 	9.44603e-185
0.6678 	6.1895e-185
0.6685 	4.56124e-185
0.6692 	2.93298e-185
0.6699 	1.30472e-185
0.6706 	9.54781e-186
0.6713 	8.17829e-186
0.672 	6.79955e-186
0.6727 	5.42081e-186
0.6734 	4.04207e-186
0.6741 	2.66333e-186
0.6748 	1.28459e-186
0.6755 	8.09329e-187
0.6762 	6.95456e-187
0.6776 	4.66069e-187
0.6783 	3.51346e-187
0.679 	2.36622e-187
0.6797 	1.21898e-187
0.6804 	6.74105e-188
0.6811 	5.80993e-188
0.6818 	4.87319e-188
0.6825 	3.93491e-188
0.6832 	2.99663e-188
0.6839 	2.05835e-188
0.6846 	1.12007e-188
0.6853 	5.51833e-189
0.686 	4.76983e-189
0.6867 	4.01753e-189
0.6874 	3.26311e-189
0.6881 	2.50869e-189
0.6888 	1.75427e-189
0.6895 	9.99855e-190
0.6902 	4.44079e-190
0.6916 	3.25509e-190
0.6923 	2.65862e-190
0.693 	2.06215e-190
0.6937 	1.46568e-190
0.6944 	8.69215e-191
0.6951 	3.51852e-191
0.6958 	3.09127e-191
0.6965 	2.66274e-191
0.6972 	2.23192e-191
0.6979 	1.80109e-191
0.6986 	1.37027e-191
0.6993 	9.3944e-192
0.7 	5.08615e-192
